#Header 
 
9984 atoms 
 
2 atom types 
 
0.00000000 208.83352959 xlo xhi 
0.00000000 21.71999997 ylo yhi 
0.00000000 26.10419120 zlo zhi 

0.00000000 0.00000000 0.00000000 xy xz yz 

Atoms 
 
1 1 1.50601103 1.81000000 12.04808825
2 1 1.50601103 5.42999999 12.04808825
3 1 1.50601103 9.04999999 12.04808825
4 1 1.50601103 12.66999998 12.04808825
5 1 1.50601103 16.28999998 12.04808825
6 1 1.50601103 19.90999997 12.04808825
7 1 14.55810663 1.81000000 12.04808825
8 1 14.55810663 5.42999999 12.04808825
9 1 14.55810663 9.04999999 12.04808825
10 1 14.55810663 12.66999998 12.04808825
11 1 14.55810663 16.28999998 12.04808825
12 1 14.55810663 19.90999997 12.04808825
13 1 27.61020223 1.81000000 12.04808825
14 1 27.61020223 5.42999999 12.04808825
15 1 27.61020223 9.04999999 12.04808825
16 1 27.61020223 12.66999998 12.04808825
17 1 27.61020223 16.28999998 12.04808825
18 1 27.61020223 19.90999997 12.04808825
19 1 40.66229783 1.81000000 12.04808825
20 1 40.66229783 5.42999999 12.04808825
21 1 40.66229783 9.04999999 12.04808825
22 1 40.66229783 12.66999998 12.04808825
23 1 40.66229783 16.28999998 12.04808825
24 1 40.66229783 19.90999997 12.04808825
25 1 53.71439343 1.81000000 12.04808825
26 1 53.71439343 5.42999999 12.04808825
27 1 53.71439343 9.04999999 12.04808825
28 1 53.71439343 12.66999998 12.04808825
29 1 53.71439343 16.28999998 12.04808825
30 1 53.71439343 19.90999997 12.04808825
31 1 66.76648903 1.81000000 12.04808825
32 1 66.76648903 5.42999999 12.04808825
33 1 66.76648903 9.04999999 12.04808825
34 1 66.76648903 12.66999998 12.04808825
35 1 66.76648903 16.28999998 12.04808825
36 1 66.76648903 19.90999997 12.04808825
37 1 79.81858463 1.81000000 12.04808825
38 1 79.81858463 5.42999999 12.04808825
39 1 79.81858463 9.04999999 12.04808825
40 1 79.81858463 12.66999998 12.04808825
41 1 79.81858463 16.28999998 12.04808825
42 1 79.81858463 19.90999997 12.04808825
43 1 92.87068022 1.81000000 12.04808825
44 1 92.87068022 5.42999999 12.04808825
45 1 92.87068022 9.04999999 12.04808825
46 1 92.87068022 12.66999998 12.04808825
47 1 92.87068022 16.28999998 12.04808825
48 1 92.87068022 19.90999997 12.04808825
49 1 1.50601103 1.81000000 25.10018384
50 1 1.50601103 5.42999999 25.10018384
51 1 1.50601103 9.04999999 25.10018384
52 1 1.50601103 12.66999998 25.10018384
53 1 1.50601103 16.28999998 25.10018384
54 1 1.50601103 19.90999997 25.10018384
55 1 14.55810663 1.81000000 25.10018384
56 1 14.55810663 5.42999999 25.10018384
57 1 14.55810663 9.04999999 25.10018384
58 1 14.55810663 12.66999998 25.10018384
59 1 14.55810663 16.28999998 25.10018384
60 1 14.55810663 19.90999997 25.10018384
61 1 27.61020223 1.81000000 25.10018384
62 1 27.61020223 5.42999999 25.10018384
63 1 27.61020223 9.04999999 25.10018384
64 1 27.61020223 12.66999998 25.10018384
65 1 27.61020223 16.28999998 25.10018384
66 1 27.61020223 19.90999997 25.10018384
67 1 40.66229783 1.81000000 25.10018384
68 1 40.66229783 5.42999999 25.10018384
69 1 40.66229783 9.04999999 25.10018384
70 1 40.66229783 12.66999998 25.10018384
71 1 40.66229783 16.28999998 25.10018384
72 1 40.66229783 19.90999997 25.10018384
73 1 53.71439343 1.81000000 25.10018384
74 1 53.71439343 5.42999999 25.10018384
75 1 53.71439343 9.04999999 25.10018384
76 1 53.71439343 12.66999998 25.10018384
77 1 53.71439343 16.28999998 25.10018384
78 1 53.71439343 19.90999997 25.10018384
79 1 66.76648903 1.81000000 25.10018384
80 1 66.76648903 5.42999999 25.10018384
81 1 66.76648903 9.04999999 25.10018384
82 1 66.76648903 12.66999998 25.10018384
83 1 66.76648903 16.28999998 25.10018384
84 1 66.76648903 19.90999997 25.10018384
85 1 79.81858463 1.81000000 25.10018384
86 1 79.81858463 5.42999999 25.10018384
87 1 79.81858463 9.04999999 25.10018384
88 1 79.81858463 12.66999998 25.10018384
89 1 79.81858463 16.28999998 25.10018384
90 1 79.81858463 19.90999997 25.10018384
91 1 92.87068022 1.81000000 25.10018384
92 1 92.87068022 5.42999999 25.10018384
93 1 92.87068022 9.04999999 25.10018384
94 1 92.87068022 12.66999998 25.10018384
95 1 92.87068022 16.28999998 25.10018384
96 1 92.87068022 19.90999997 25.10018384
97 1 0.50200368 0.00000000 10.54207721
98 1 0.50200368 3.62000000 10.54207721
99 1 0.50200368 7.23999999 10.54207721
100 1 0.50200368 10.85999999 10.54207721
101 1 0.50200368 14.47999998 10.54207721
102 1 0.50200368 18.09999998 10.54207721
103 1 13.55409928 0.00000000 10.54207721
104 1 13.55409928 3.62000000 10.54207721
105 1 13.55409928 7.23999999 10.54207721
106 1 13.55409928 10.85999999 10.54207721
107 1 13.55409928 14.47999998 10.54207721
108 1 13.55409928 18.09999998 10.54207721
109 1 26.60619488 0.00000000 10.54207721
110 1 26.60619488 3.62000000 10.54207721
111 1 26.60619488 7.23999999 10.54207721
112 1 26.60619488 10.85999999 10.54207721
113 1 26.60619488 14.47999998 10.54207721
114 1 26.60619488 18.09999998 10.54207721
115 1 39.65829047 0.00000000 10.54207721
116 1 39.65829047 3.62000000 10.54207721
117 1 39.65829047 7.23999999 10.54207721
118 1 39.65829047 10.85999999 10.54207721
119 1 39.65829047 14.47999998 10.54207721
120 1 39.65829047 18.09999998 10.54207721
121 1 52.71038607 0.00000000 10.54207721
122 1 52.71038607 3.62000000 10.54207721
123 1 52.71038607 7.23999999 10.54207721
124 1 52.71038607 10.85999999 10.54207721
125 1 52.71038607 14.47999998 10.54207721
126 1 52.71038607 18.09999998 10.54207721
127 1 65.76248167 0.00000000 10.54207721
128 1 65.76248167 3.62000000 10.54207721
129 1 65.76248167 7.23999999 10.54207721
130 1 65.76248167 10.85999999 10.54207721
131 1 65.76248167 14.47999998 10.54207721
132 1 65.76248167 18.09999998 10.54207721
133 1 78.81457727 0.00000000 10.54207721
134 1 78.81457727 3.62000000 10.54207721
135 1 78.81457727 7.23999999 10.54207721
136 1 78.81457727 10.85999999 10.54207721
137 1 78.81457727 14.47999998 10.54207721
138 1 78.81457727 18.09999998 10.54207721
139 1 91.86667287 0.00000000 10.54207721
140 1 91.86667287 3.62000000 10.54207721
141 1 91.86667287 7.23999999 10.54207721
142 1 91.86667287 10.85999999 10.54207721
143 1 91.86667287 14.47999998 10.54207721
144 1 91.86667287 18.09999998 10.54207721
145 1 0.50200368 0.00000000 23.59417281
146 1 0.50200368 3.62000000 23.59417281
147 1 0.50200368 7.23999999 23.59417281
148 1 0.50200368 10.85999999 23.59417281
149 1 0.50200368 14.47999998 23.59417281
150 1 0.50200368 18.09999998 23.59417281
151 1 13.55409928 0.00000000 23.59417281
152 1 13.55409928 3.62000000 23.59417281
153 1 13.55409928 7.23999999 23.59417281
154 1 13.55409928 10.85999999 23.59417281
155 1 13.55409928 14.47999998 23.59417281
156 1 13.55409928 18.09999998 23.59417281
157 1 26.60619488 0.00000000 23.59417281
158 1 26.60619488 3.62000000 23.59417281
159 1 26.60619488 7.23999999 23.59417281
160 1 26.60619488 10.85999999 23.59417281
161 1 26.60619488 14.47999998 23.59417281
162 1 26.60619488 18.09999998 23.59417281
163 1 39.65829047 0.00000000 23.59417281
164 1 39.65829047 3.62000000 23.59417281
165 1 39.65829047 7.23999999 23.59417281
166 1 39.65829047 10.85999999 23.59417281
167 1 39.65829047 14.47999998 23.59417281
168 1 39.65829047 18.09999998 23.59417281
169 1 52.71038607 0.00000000 23.59417281
170 1 52.71038607 3.62000000 23.59417281
171 1 52.71038607 7.23999999 23.59417281
172 1 52.71038607 10.85999999 23.59417281
173 1 52.71038607 14.47999998 23.59417281
174 1 52.71038607 18.09999998 23.59417281
175 1 65.76248167 0.00000000 23.59417281
176 1 65.76248167 3.62000000 23.59417281
177 1 65.76248167 7.23999999 23.59417281
178 1 65.76248167 10.85999999 23.59417281
179 1 65.76248167 14.47999998 23.59417281
180 1 65.76248167 18.09999998 23.59417281
181 1 78.81457727 0.00000000 23.59417281
182 1 78.81457727 3.62000000 23.59417281
183 1 78.81457727 7.23999999 23.59417281
184 1 78.81457727 10.85999999 23.59417281
185 1 78.81457727 14.47999998 23.59417281
186 1 78.81457727 18.09999998 23.59417281
187 1 91.86667287 0.00000000 23.59417281
188 1 91.86667287 3.62000000 23.59417281
189 1 91.86667287 7.23999999 23.59417281
190 1 91.86667287 10.85999999 23.59417281
191 1 91.86667287 14.47999998 23.59417281
192 1 91.86667287 18.09999998 23.59417281
193 1 4.01602942 1.81000000 12.55009192
194 1 4.01602942 5.42999999 12.55009192
195 1 4.01602942 9.04999999 12.55009192
196 1 4.01602942 12.66999998 12.55009192
197 1 4.01602942 16.28999998 12.55009192
198 1 4.01602942 19.90999997 12.55009192
199 1 17.06812501 1.81000000 12.55009192
200 1 17.06812501 5.42999999 12.55009192
201 1 17.06812501 9.04999999 12.55009192
202 1 17.06812501 12.66999998 12.55009192
203 1 17.06812501 16.28999998 12.55009192
204 1 17.06812501 19.90999997 12.55009192
205 1 30.12022061 1.81000000 12.55009192
206 1 30.12022061 5.42999999 12.55009192
207 1 30.12022061 9.04999999 12.55009192
208 1 30.12022061 12.66999998 12.55009192
209 1 30.12022061 16.28999998 12.55009192
210 1 30.12022061 19.90999997 12.55009192
211 1 43.17231621 1.81000000 12.55009192
212 1 43.17231621 5.42999999 12.55009192
213 1 43.17231621 9.04999999 12.55009192
214 1 43.17231621 12.66999998 12.55009192
215 1 43.17231621 16.28999998 12.55009192
216 1 43.17231621 19.90999997 12.55009192
217 1 56.22441181 1.81000000 12.55009192
218 1 56.22441181 5.42999999 12.55009192
219 1 56.22441181 9.04999999 12.55009192
220 1 56.22441181 12.66999998 12.55009192
221 1 56.22441181 16.28999998 12.55009192
222 1 56.22441181 19.90999997 12.55009192
223 1 69.27650741 1.81000000 12.55009192
224 1 69.27650741 5.42999999 12.55009192
225 1 69.27650741 9.04999999 12.55009192
226 1 69.27650741 12.66999998 12.55009192
227 1 69.27650741 16.28999998 12.55009192
228 1 69.27650741 19.90999997 12.55009192
229 1 82.32860301 1.81000000 12.55009192
230 1 82.32860301 5.42999999 12.55009192
231 1 82.32860301 9.04999999 12.55009192
232 1 82.32860301 12.66999998 12.55009192
233 1 82.32860301 16.28999998 12.55009192
234 1 82.32860301 19.90999997 12.55009192
235 1 95.38069861 1.81000000 12.55009192
236 1 95.38069861 5.42999999 12.55009192
237 1 95.38069861 9.04999999 12.55009192
238 1 95.38069861 12.66999998 12.55009192
239 1 95.38069861 16.28999998 12.55009192
240 1 95.38069861 19.90999997 12.55009192
241 1 4.01602942 1.81000000 25.60218752
242 1 4.01602942 5.42999999 25.60218752
243 1 4.01602942 9.04999999 25.60218752
244 1 4.01602942 12.66999998 25.60218752
245 1 4.01602942 16.28999998 25.60218752
246 1 4.01602942 19.90999997 25.60218752
247 1 17.06812501 1.81000000 25.60218752
248 1 17.06812501 5.42999999 25.60218752
249 1 17.06812501 9.04999999 25.60218752
250 1 17.06812501 12.66999998 25.60218752
251 1 17.06812501 16.28999998 25.60218752
252 1 17.06812501 19.90999997 25.60218752
253 1 30.12022061 1.81000000 25.60218752
254 1 30.12022061 5.42999999 25.60218752
255 1 30.12022061 9.04999999 25.60218752
256 1 30.12022061 12.66999998 25.60218752
257 1 30.12022061 16.28999998 25.60218752
258 1 30.12022061 19.90999997 25.60218752
259 1 43.17231621 1.81000000 25.60218752
260 1 43.17231621 5.42999999 25.60218752
261 1 43.17231621 9.04999999 25.60218752
262 1 43.17231621 12.66999998 25.60218752
263 1 43.17231621 16.28999998 25.60218752
264 1 43.17231621 19.90999997 25.60218752
265 1 56.22441181 1.81000000 25.60218752
266 1 56.22441181 5.42999999 25.60218752
267 1 56.22441181 9.04999999 25.60218752
268 1 56.22441181 12.66999998 25.60218752
269 1 56.22441181 16.28999998 25.60218752
270 1 56.22441181 19.90999997 25.60218752
271 1 69.27650741 1.81000000 25.60218752
272 1 69.27650741 5.42999999 25.60218752
273 1 69.27650741 9.04999999 25.60218752
274 1 69.27650741 12.66999998 25.60218752
275 1 69.27650741 16.28999998 25.60218752
276 1 69.27650741 19.90999997 25.60218752
277 1 82.32860301 1.81000000 25.60218752
278 1 82.32860301 5.42999999 25.60218752
279 1 82.32860301 9.04999999 25.60218752
280 1 82.32860301 12.66999998 25.60218752
281 1 82.32860301 16.28999998 25.60218752
282 1 82.32860301 19.90999997 25.60218752
283 1 95.38069861 1.81000000 25.60218752
284 1 95.38069861 5.42999999 25.60218752
285 1 95.38069861 9.04999999 25.60218752
286 1 95.38069861 12.66999998 25.60218752
287 1 95.38069861 16.28999998 25.60218752
288 1 95.38069861 19.90999997 25.60218752
289 1 3.01202206 0.00000000 11.04408089
290 1 3.01202206 3.62000000 11.04408089
291 1 3.01202206 7.23999999 11.04408089
292 1 3.01202206 10.85999999 11.04408089
293 1 3.01202206 14.47999998 11.04408089
294 1 3.01202206 18.09999998 11.04408089
295 1 16.06411766 0.00000000 11.04408089
296 1 16.06411766 3.62000000 11.04408089
297 1 16.06411766 7.23999999 11.04408089
298 1 16.06411766 10.85999999 11.04408089
299 1 16.06411766 14.47999998 11.04408089
300 1 16.06411766 18.09999998 11.04408089
301 1 29.11621326 0.00000000 11.04408089
302 1 29.11621326 3.62000000 11.04408089
303 1 29.11621326 7.23999999 11.04408089
304 1 29.11621326 10.85999999 11.04408089
305 1 29.11621326 14.47999998 11.04408089
306 1 29.11621326 18.09999998 11.04408089
307 1 42.16830886 0.00000000 11.04408089
308 1 42.16830886 3.62000000 11.04408089
309 1 42.16830886 7.23999999 11.04408089
310 1 42.16830886 10.85999999 11.04408089
311 1 42.16830886 14.47999998 11.04408089
312 1 42.16830886 18.09999998 11.04408089
313 1 55.22040446 0.00000000 11.04408089
314 1 55.22040446 3.62000000 11.04408089
315 1 55.22040446 7.23999999 11.04408089
316 1 55.22040446 10.85999999 11.04408089
317 1 55.22040446 14.47999998 11.04408089
318 1 55.22040446 18.09999998 11.04408089
319 1 68.27250006 0.00000000 11.04408089
320 1 68.27250006 3.62000000 11.04408089
321 1 68.27250006 7.23999999 11.04408089
322 1 68.27250006 10.85999999 11.04408089
323 1 68.27250006 14.47999998 11.04408089
324 1 68.27250006 18.09999998 11.04408089
325 1 81.32459566 0.00000000 11.04408089
326 1 81.32459566 3.62000000 11.04408089
327 1 81.32459566 7.23999999 11.04408089
328 1 81.32459566 10.85999999 11.04408089
329 1 81.32459566 14.47999998 11.04408089
330 1 81.32459566 18.09999998 11.04408089
331 1 94.37669126 0.00000000 11.04408089
332 1 94.37669126 3.62000000 11.04408089
333 1 94.37669126 7.23999999 11.04408089
334 1 94.37669126 10.85999999 11.04408089
335 1 94.37669126 14.47999998 11.04408089
336 1 94.37669126 18.09999998 11.04408089
337 1 3.01202206 0.00000000 24.09617649
338 1 3.01202206 3.62000000 24.09617649
339 1 3.01202206 7.23999999 24.09617649
340 1 3.01202206 10.85999999 24.09617649
341 1 3.01202206 14.47999998 24.09617649
342 1 3.01202206 18.09999998 24.09617649
343 1 16.06411766 0.00000000 24.09617649
344 1 16.06411766 3.62000000 24.09617649
345 1 16.06411766 7.23999999 24.09617649
346 1 16.06411766 10.85999999 24.09617649
347 1 16.06411766 14.47999998 24.09617649
348 1 16.06411766 18.09999998 24.09617649
349 1 29.11621326 0.00000000 24.09617649
350 1 29.11621326 3.62000000 24.09617649
351 1 29.11621326 7.23999999 24.09617649
352 1 29.11621326 10.85999999 24.09617649
353 1 29.11621326 14.47999998 24.09617649
354 1 29.11621326 18.09999998 24.09617649
355 1 42.16830886 0.00000000 24.09617649
356 1 42.16830886 3.62000000 24.09617649
357 1 42.16830886 7.23999999 24.09617649
358 1 42.16830886 10.85999999 24.09617649
359 1 42.16830886 14.47999998 24.09617649
360 1 42.16830886 18.09999998 24.09617649
361 1 55.22040446 0.00000000 24.09617649
362 1 55.22040446 3.62000000 24.09617649
363 1 55.22040446 7.23999999 24.09617649
364 1 55.22040446 10.85999999 24.09617649
365 1 55.22040446 14.47999998 24.09617649
366 1 55.22040446 18.09999998 24.09617649
367 1 68.27250006 0.00000000 24.09617649
368 1 68.27250006 3.62000000 24.09617649
369 1 68.27250006 7.23999999 24.09617649
370 1 68.27250006 10.85999999 24.09617649
371 1 68.27250006 14.47999998 24.09617649
372 1 68.27250006 18.09999998 24.09617649
373 1 81.32459566 0.00000000 24.09617649
374 1 81.32459566 3.62000000 24.09617649
375 1 81.32459566 7.23999999 24.09617649
376 1 81.32459566 10.85999999 24.09617649
377 1 81.32459566 14.47999998 24.09617649
378 1 81.32459566 18.09999998 24.09617649
379 1 94.37669126 0.00000000 24.09617649
380 1 94.37669126 3.62000000 24.09617649
381 1 94.37669126 7.23999999 24.09617649
382 1 94.37669126 10.85999999 24.09617649
383 1 94.37669126 14.47999998 24.09617649
384 1 94.37669126 18.09999998 24.09617649
385 1 5.52204045 0.00000000 11.54608457
386 1 5.52204045 3.62000000 11.54608457
387 1 5.52204045 7.23999999 11.54608457
388 1 5.52204045 10.85999999 11.54608457
389 1 5.52204045 14.47999998 11.54608457
390 1 5.52204045 18.09999998 11.54608457
391 1 18.57413604 0.00000000 11.54608457
392 1 18.57413604 3.62000000 11.54608457
393 1 18.57413604 7.23999999 11.54608457
394 1 18.57413604 10.85999999 11.54608457
395 1 18.57413604 14.47999998 11.54608457
396 1 18.57413604 18.09999998 11.54608457
397 1 31.62623164 0.00000000 11.54608457
398 1 31.62623164 3.62000000 11.54608457
399 1 31.62623164 7.23999999 11.54608457
400 1 31.62623164 10.85999999 11.54608457
401 1 31.62623164 14.47999998 11.54608457
402 1 31.62623164 18.09999998 11.54608457
403 1 44.67832724 0.00000000 11.54608457
404 1 44.67832724 3.62000000 11.54608457
405 1 44.67832724 7.23999999 11.54608457
406 1 44.67832724 10.85999999 11.54608457
407 1 44.67832724 14.47999998 11.54608457
408 1 44.67832724 18.09999998 11.54608457
409 1 57.73042284 0.00000000 11.54608457
410 1 57.73042284 3.62000000 11.54608457
411 1 57.73042284 7.23999999 11.54608457
412 1 57.73042284 10.85999999 11.54608457
413 1 57.73042284 14.47999998 11.54608457
414 1 57.73042284 18.09999998 11.54608457
415 1 70.78251844 0.00000000 11.54608457
416 1 70.78251844 3.62000000 11.54608457
417 1 70.78251844 7.23999999 11.54608457
418 1 70.78251844 10.85999999 11.54608457
419 1 70.78251844 14.47999998 11.54608457
420 1 70.78251844 18.09999998 11.54608457
421 1 83.83461404 0.00000000 11.54608457
422 1 83.83461404 3.62000000 11.54608457
423 1 83.83461404 7.23999999 11.54608457
424 1 83.83461404 10.85999999 11.54608457
425 1 83.83461404 14.47999998 11.54608457
426 1 83.83461404 18.09999998 11.54608457
427 1 96.88670964 0.00000000 11.54608457
428 1 96.88670964 3.62000000 11.54608457
429 1 96.88670964 7.23999999 11.54608457
430 1 96.88670964 10.85999999 11.54608457
431 1 96.88670964 14.47999998 11.54608457
432 1 96.88670964 18.09999998 11.54608457
433 1 5.52204045 0.00000000 24.59818017
434 1 5.52204045 3.62000000 24.59818017
435 1 5.52204045 7.23999999 24.59818017
436 1 5.52204045 10.85999999 24.59818017
437 1 5.52204045 14.47999998 24.59818017
438 1 5.52204045 18.09999998 24.59818017
439 1 18.57413604 0.00000000 24.59818017
440 1 18.57413604 3.62000000 24.59818017
441 1 18.57413604 7.23999999 24.59818017
442 1 18.57413604 10.85999999 24.59818017
443 1 18.57413604 14.47999998 24.59818017
444 1 18.57413604 18.09999998 24.59818017
445 1 31.62623164 0.00000000 24.59818017
446 1 31.62623164 3.62000000 24.59818017
447 1 31.62623164 7.23999999 24.59818017
448 1 31.62623164 10.85999999 24.59818017
449 1 31.62623164 14.47999998 24.59818017
450 1 31.62623164 18.09999998 24.59818017
451 1 44.67832724 0.00000000 24.59818017
452 1 44.67832724 3.62000000 24.59818017
453 1 44.67832724 7.23999999 24.59818017
454 1 44.67832724 10.85999999 24.59818017
455 1 44.67832724 14.47999998 24.59818017
456 1 44.67832724 18.09999998 24.59818017
457 1 57.73042284 0.00000000 24.59818017
458 1 57.73042284 3.62000000 24.59818017
459 1 57.73042284 7.23999999 24.59818017
460 1 57.73042284 10.85999999 24.59818017
461 1 57.73042284 14.47999998 24.59818017
462 1 57.73042284 18.09999998 24.59818017
463 1 70.78251844 0.00000000 24.59818017
464 1 70.78251844 3.62000000 24.59818017
465 1 70.78251844 7.23999999 24.59818017
466 1 70.78251844 10.85999999 24.59818017
467 1 70.78251844 14.47999998 24.59818017
468 1 70.78251844 18.09999998 24.59818017
469 1 83.83461404 0.00000000 24.59818017
470 1 83.83461404 3.62000000 24.59818017
471 1 83.83461404 7.23999999 24.59818017
472 1 83.83461404 10.85999999 24.59818017
473 1 83.83461404 14.47999998 24.59818017
474 1 83.83461404 18.09999998 24.59818017
475 1 96.88670964 0.00000000 24.59818017
476 1 96.88670964 3.62000000 24.59818017
477 1 96.88670964 7.23999999 24.59818017
478 1 96.88670964 10.85999999 24.59818017
479 1 96.88670964 14.47999998 24.59818017
480 1 96.88670964 18.09999998 24.59818017
481 1 8.03205883 0.00000000 12.04808825
482 1 8.03205883 3.62000000 12.04808825
483 1 8.03205883 7.23999999 12.04808825
484 1 8.03205883 10.85999999 12.04808825
485 1 8.03205883 14.47999998 12.04808825
486 1 8.03205883 18.09999998 12.04808825
487 1 21.08415443 0.00000000 12.04808825
488 1 21.08415443 3.62000000 12.04808825
489 1 21.08415443 7.23999999 12.04808825
490 1 21.08415443 10.85999999 12.04808825
491 1 21.08415443 14.47999998 12.04808825
492 1 21.08415443 18.09999998 12.04808825
493 1 34.13625003 0.00000000 12.04808825
494 1 34.13625003 3.62000000 12.04808825
495 1 34.13625003 7.23999999 12.04808825
496 1 34.13625003 10.85999999 12.04808825
497 1 34.13625003 14.47999998 12.04808825
498 1 34.13625003 18.09999998 12.04808825
499 1 47.18834563 0.00000000 12.04808825
500 1 47.18834563 3.62000000 12.04808825
501 1 47.18834563 7.23999999 12.04808825
502 1 47.18834563 10.85999999 12.04808825
503 1 47.18834563 14.47999998 12.04808825
504 1 47.18834563 18.09999998 12.04808825
505 1 60.24044123 0.00000000 12.04808825
506 1 60.24044123 3.62000000 12.04808825
507 1 60.24044123 7.23999999 12.04808825
508 1 60.24044123 10.85999999 12.04808825
509 1 60.24044123 14.47999998 12.04808825
510 1 60.24044123 18.09999998 12.04808825
511 1 73.29253683 0.00000000 12.04808825
512 1 73.29253683 3.62000000 12.04808825
513 1 73.29253683 7.23999999 12.04808825
514 1 73.29253683 10.85999999 12.04808825
515 1 73.29253683 14.47999998 12.04808825
516 1 73.29253683 18.09999998 12.04808825
517 1 86.34463243 0.00000000 12.04808825
518 1 86.34463243 3.62000000 12.04808825
519 1 86.34463243 7.23999999 12.04808825
520 1 86.34463243 10.85999999 12.04808825
521 1 86.34463243 14.47999998 12.04808825
522 1 86.34463243 18.09999998 12.04808825
523 1 99.39672802 0.00000000 12.04808825
524 1 99.39672802 3.62000000 12.04808825
525 1 99.39672802 7.23999999 12.04808825
526 1 99.39672802 10.85999999 12.04808825
527 1 99.39672802 14.47999998 12.04808825
528 1 99.39672802 18.09999998 12.04808825
529 1 8.03205883 0.00000000 25.10018384
530 1 8.03205883 3.62000000 25.10018384
531 1 8.03205883 7.23999999 25.10018384
532 1 8.03205883 10.85999999 25.10018384
533 1 8.03205883 14.47999998 25.10018384
534 1 8.03205883 18.09999998 25.10018384
535 1 21.08415443 0.00000000 25.10018384
536 1 21.08415443 3.62000000 25.10018384
537 1 21.08415443 7.23999999 25.10018384
538 1 21.08415443 10.85999999 25.10018384
539 1 21.08415443 14.47999998 25.10018384
540 1 21.08415443 18.09999998 25.10018384
541 1 34.13625003 0.00000000 25.10018384
542 1 34.13625003 3.62000000 25.10018384
543 1 34.13625003 7.23999999 25.10018384
544 1 34.13625003 10.85999999 25.10018384
545 1 34.13625003 14.47999998 25.10018384
546 1 34.13625003 18.09999998 25.10018384
547 1 47.18834563 0.00000000 25.10018384
548 1 47.18834563 3.62000000 25.10018384
549 1 47.18834563 7.23999999 25.10018384
550 1 47.18834563 10.85999999 25.10018384
551 1 47.18834563 14.47999998 25.10018384
552 1 47.18834563 18.09999998 25.10018384
553 1 60.24044123 0.00000000 25.10018384
554 1 60.24044123 3.62000000 25.10018384
555 1 60.24044123 7.23999999 25.10018384
556 1 60.24044123 10.85999999 25.10018384
557 1 60.24044123 14.47999998 25.10018384
558 1 60.24044123 18.09999998 25.10018384
559 1 73.29253683 0.00000000 25.10018384
560 1 73.29253683 3.62000000 25.10018384
561 1 73.29253683 7.23999999 25.10018384
562 1 73.29253683 10.85999999 25.10018384
563 1 73.29253683 14.47999998 25.10018384
564 1 73.29253683 18.09999998 25.10018384
565 1 86.34463243 0.00000000 25.10018384
566 1 86.34463243 3.62000000 25.10018384
567 1 86.34463243 7.23999999 25.10018384
568 1 86.34463243 10.85999999 25.10018384
569 1 86.34463243 14.47999998 25.10018384
570 1 86.34463243 18.09999998 25.10018384
571 1 99.39672802 0.00000000 25.10018384
572 1 99.39672802 3.62000000 25.10018384
573 1 99.39672802 7.23999999 25.10018384
574 1 99.39672802 10.85999999 25.10018384
575 1 99.39672802 14.47999998 25.10018384
576 1 99.39672802 18.09999998 25.10018384
577 1 10.54207721 0.00000000 12.55009192
578 1 10.54207721 3.62000000 12.55009192
579 1 10.54207721 7.23999999 12.55009192
580 1 10.54207721 10.85999999 12.55009192
581 1 10.54207721 14.47999998 12.55009192
582 1 10.54207721 18.09999998 12.55009192
583 1 23.59417281 0.00000000 12.55009192
584 1 23.59417281 3.62000000 12.55009192
585 1 23.59417281 7.23999999 12.55009192
586 1 23.59417281 10.85999999 12.55009192
587 1 23.59417281 14.47999998 12.55009192
588 1 23.59417281 18.09999998 12.55009192
589 1 36.64626841 0.00000000 12.55009192
590 1 36.64626841 3.62000000 12.55009192
591 1 36.64626841 7.23999999 12.55009192
592 1 36.64626841 10.85999999 12.55009192
593 1 36.64626841 14.47999998 12.55009192
594 1 36.64626841 18.09999998 12.55009192
595 1 49.69836401 0.00000000 12.55009192
596 1 49.69836401 3.62000000 12.55009192
597 1 49.69836401 7.23999999 12.55009192
598 1 49.69836401 10.85999999 12.55009192
599 1 49.69836401 14.47999998 12.55009192
600 1 49.69836401 18.09999998 12.55009192
601 1 62.75045961 0.00000000 12.55009192
602 1 62.75045961 3.62000000 12.55009192
603 1 62.75045961 7.23999999 12.55009192
604 1 62.75045961 10.85999999 12.55009192
605 1 62.75045961 14.47999998 12.55009192
606 1 62.75045961 18.09999998 12.55009192
607 1 75.80255521 0.00000000 12.55009192
608 1 75.80255521 3.62000000 12.55009192
609 1 75.80255521 7.23999999 12.55009192
610 1 75.80255521 10.85999999 12.55009192
611 1 75.80255521 14.47999998 12.55009192
612 1 75.80255521 18.09999998 12.55009192
613 1 88.85465081 0.00000000 12.55009192
614 1 88.85465081 3.62000000 12.55009192
615 1 88.85465081 7.23999999 12.55009192
616 1 88.85465081 10.85999999 12.55009192
617 1 88.85465081 14.47999998 12.55009192
618 1 88.85465081 18.09999998 12.55009192
619 2 101.90674641 0.00000000 12.55009192
620 2 101.90674641 3.62000000 12.55009192
621 2 101.90674641 7.23999999 12.55009192
622 2 101.90674641 10.85999999 12.55009192
623 2 101.90674641 14.47999998 12.55009192
624 2 101.90674641 18.09999998 12.55009192
625 1 10.54207721 0.00000000 25.60218752
626 1 10.54207721 3.62000000 25.60218752
627 1 10.54207721 7.23999999 25.60218752
628 1 10.54207721 10.85999999 25.60218752
629 1 10.54207721 14.47999998 25.60218752
630 1 10.54207721 18.09999998 25.60218752
631 1 23.59417281 0.00000000 25.60218752
632 1 23.59417281 3.62000000 25.60218752
633 1 23.59417281 7.23999999 25.60218752
634 1 23.59417281 10.85999999 25.60218752
635 1 23.59417281 14.47999998 25.60218752
636 1 23.59417281 18.09999998 25.60218752
637 1 36.64626841 0.00000000 25.60218752
638 1 36.64626841 3.62000000 25.60218752
639 1 36.64626841 7.23999999 25.60218752
640 1 36.64626841 10.85999999 25.60218752
641 1 36.64626841 14.47999998 25.60218752
642 1 36.64626841 18.09999998 25.60218752
643 1 49.69836401 0.00000000 25.60218752
644 1 49.69836401 3.62000000 25.60218752
645 1 49.69836401 7.23999999 25.60218752
646 1 49.69836401 10.85999999 25.60218752
647 1 49.69836401 14.47999998 25.60218752
648 1 49.69836401 18.09999998 25.60218752
649 1 62.75045961 0.00000000 25.60218752
650 1 62.75045961 3.62000000 25.60218752
651 1 62.75045961 7.23999999 25.60218752
652 1 62.75045961 10.85999999 25.60218752
653 1 62.75045961 14.47999998 25.60218752
654 1 62.75045961 18.09999998 25.60218752
655 1 75.80255521 0.00000000 25.60218752
656 1 75.80255521 3.62000000 25.60218752
657 1 75.80255521 7.23999999 25.60218752
658 1 75.80255521 10.85999999 25.60218752
659 1 75.80255521 14.47999998 25.60218752
660 1 75.80255521 18.09999998 25.60218752
661 1 88.85465081 0.00000000 25.60218752
662 1 88.85465081 3.62000000 25.60218752
663 1 88.85465081 7.23999999 25.60218752
664 1 88.85465081 10.85999999 25.60218752
665 1 88.85465081 14.47999998 25.60218752
666 1 88.85465081 18.09999998 25.60218752
667 2 101.90674641 0.00000000 25.60218752
668 2 101.90674641 3.62000000 25.60218752
669 2 101.90674641 7.23999999 25.60218752
670 2 101.90674641 10.85999999 25.60218752
671 2 101.90674641 14.47999998 25.60218752
672 2 101.90674641 18.09999998 25.60218752
673 1 2.00801471 1.81000000 9.53806986
674 1 2.00801471 5.42999999 9.53806986
675 1 2.00801471 9.04999999 9.53806986
676 1 2.00801471 12.66999998 9.53806986
677 1 2.00801471 16.28999998 9.53806986
678 1 2.00801471 19.90999997 9.53806986
679 1 15.06011031 1.81000000 9.53806986
680 1 15.06011031 5.42999999 9.53806986
681 1 15.06011031 9.04999999 9.53806986
682 1 15.06011031 12.66999998 9.53806986
683 1 15.06011031 16.28999998 9.53806986
684 1 15.06011031 19.90999997 9.53806986
685 1 28.11220591 1.81000000 9.53806986
686 1 28.11220591 5.42999999 9.53806986
687 1 28.11220591 9.04999999 9.53806986
688 1 28.11220591 12.66999998 9.53806986
689 1 28.11220591 16.28999998 9.53806986
690 1 28.11220591 19.90999997 9.53806986
691 1 41.16430151 1.81000000 9.53806986
692 1 41.16430151 5.42999999 9.53806986
693 1 41.16430151 9.04999999 9.53806986
694 1 41.16430151 12.66999998 9.53806986
695 1 41.16430151 16.28999998 9.53806986
696 1 41.16430151 19.90999997 9.53806986
697 1 54.21639710 1.81000000 9.53806986
698 1 54.21639710 5.42999999 9.53806986
699 1 54.21639710 9.04999999 9.53806986
700 1 54.21639710 12.66999998 9.53806986
701 1 54.21639710 16.28999998 9.53806986
702 1 54.21639710 19.90999997 9.53806986
703 1 67.26849270 1.81000000 9.53806986
704 1 67.26849270 5.42999999 9.53806986
705 1 67.26849270 9.04999999 9.53806986