#Header 
 
9984 atoms 
 
2 atom types 
 
0.00000000 208.83352959 xlo xhi 
0.00000000 21.71999997 ylo yhi 
0.00000000 26.10419120 zlo zhi 

0.00000000 0.00000000 0.00000000 xy xz yz 

Atoms 
 
1 1 1.50601103 1.81000000 12.04809000
2 1 1.50601103 5.43000000 12.04809000
3 1 1.50601103 9.05000000 12.04809000
4 1 1.50601103 12.67000000 12.04809000
5 1 1.50601103 16.29000000 12.04809000
6 1 1.50601103 19.91000000 12.04809000
7 1 14.55810663 1.81000000 12.04809000
8 1 14.55810663 5.43000000 12.04809000
9 1 14.55810663 9.05000000 12.04809000
10 1 14.55810663 12.67000000 12.04809000
11 1 14.55810663 16.29000000 12.04809000
12 1 14.55810663 19.91000000 12.04809000
13 1 27.61020223 1.81000000 12.04809000
14 1 27.61020223 5.43000000 12.04809000
15 1 27.61020223 9.05000000 12.04809000
16 1 27.61020223 12.67000000 12.04809000
17 1 27.61020223 16.29000000 12.04809000
18 1 27.61020223 19.91000000 12.04809000
19 1 40.66229783 1.81000000 12.04809000
20 1 40.66229783 5.43000000 12.04809000
21 1 40.66229783 9.05000000 12.04809000
22 1 40.66229783 12.67000000 12.04809000
23 1 40.66229783 16.29000000 12.04809000
24 1 40.66229783 19.91000000 12.04809000
25 1 53.71439343 1.81000000 12.04809000
26 1 53.71439343 5.43000000 12.04809000
27 1 53.71439343 9.05000000 12.04809000
28 1 53.71439343 12.67000000 12.04809000
29 1 53.71439343 16.29000000 12.04809000
30 1 53.71439343 19.91000000 12.04809000
31 1 66.76648903 1.81000000 12.04809000
32 1 66.76648903 5.43000000 12.04809000
33 1 66.76648903 9.05000000 12.04809000
34 1 66.76648903 12.67000000 12.04809000
35 1 66.76648903 16.29000000 12.04809000
36 1 66.76648903 19.91000000 12.04809000
37 1 79.81858463 1.81000000 12.04809000
38 1 79.81858463 5.43000000 12.04809000
39 1 79.81858463 9.05000000 12.04809000
40 1 79.81858463 12.67000000 12.04809000
41 1 79.81858463 16.29000000 12.04809000
42 1 79.81858463 19.91000000 12.04809000
43 1 92.87068022 1.81000000 12.04809000
44 1 92.87068022 5.43000000 12.04809000
45 1 92.87068022 9.05000000 12.04809000
46 1 92.87068022 12.67000000 12.04809000
47 1 92.87068022 16.29000000 12.04809000
48 1 92.87068022 19.91000000 12.04809000
49 1 1.50601103 1.81000000 25.10018000
50 1 1.50601103 5.43000000 25.10018000
51 1 1.50601103 9.05000000 25.10018000
52 1 1.50601103 12.67000000 25.10018000
53 1 1.50601103 16.29000000 25.10018000
54 1 1.50601103 19.91000000 25.10018000
55 1 14.55810663 1.81000000 25.10018000
56 1 14.55810663 5.43000000 25.10018000
57 1 14.55810663 9.05000000 25.10018000
58 1 14.55810663 12.67000000 25.10018000
59 1 14.55810663 16.29000000 25.10018000
60 1 14.55810663 19.91000000 25.10018000
61 1 27.61020223 1.81000000 25.10018000
62 1 27.61020223 5.43000000 25.10018000
63 1 27.61020223 9.05000000 25.10018000
64 1 27.61020223 12.67000000 25.10018000
65 1 27.61020223 16.29000000 25.10018000
66 1 27.61020223 19.91000000 25.10018000
67 1 40.66229783 1.81000000 25.10018000
68 1 40.66229783 5.43000000 25.10018000
69 1 40.66229783 9.05000000 25.10018000
70 1 40.66229783 12.67000000 25.10018000
71 1 40.66229783 16.29000000 25.10018000
72 1 40.66229783 19.91000000 25.10018000
73 1 53.71439343 1.81000000 25.10018000
74 1 53.71439343 5.43000000 25.10018000
75 1 53.71439343 9.05000000 25.10018000
76 1 53.71439343 12.67000000 25.10018000
77 1 53.71439343 16.29000000 25.10018000
78 1 53.71439343 19.91000000 25.10018000
79 1 66.76648903 1.81000000 25.10018000
80 1 66.76648903 5.43000000 25.10018000
81 1 66.76648903 9.05000000 25.10018000
82 1 66.76648903 12.67000000 25.10018000
83 1 66.76648903 16.29000000 25.10018000
84 1 66.76648903 19.91000000 25.10018000
85 1 79.81858463 1.81000000 25.10018000
86 1 79.81858463 5.43000000 25.10018000
87 1 79.81858463 9.05000000 25.10018000
88 1 79.81858463 12.67000000 25.10018000
89 1 79.81858463 16.29000000 25.10018000
90 1 79.81858463 19.91000000 25.10018000
91 1 92.87068022 1.81000000 25.10018000
92 1 92.87068022 5.43000000 25.10018000
93 1 92.87068022 9.05000000 25.10018000
94 1 92.87068022 12.67000000 25.10018000
95 1 92.87068022 16.29000000 25.10018000
96 1 92.87068022 19.91000000 25.10018000
97 1 0.50200368 0.00000000 10.54208000
98 1 0.50200368 3.62000000 10.54208000
99 1 0.50200368 7.24000000 10.54208000
100 1 0.50200368 10.86000000 10.54208000
101 1 0.50200368 14.48000000 10.54208000
102 1 0.50200368 18.10000000 10.54208000
103 1 13.55409928 0.00000000 10.54208000
104 1 13.55409928 3.62000000 10.54208000
105 1 13.55409928 7.24000000 10.54208000
106 1 13.55409928 10.86000000 10.54208000
107 1 13.55409928 14.48000000 10.54208000
108 1 13.55409928 18.10000000 10.54208000
109 1 26.60619488 0.00000000 10.54208000
110 1 26.60619488 3.62000000 10.54208000
111 1 26.60619488 7.24000000 10.54208000
112 1 26.60619488 10.86000000 10.54208000
113 1 26.60619488 14.48000000 10.54208000
114 1 26.60619488 18.10000000 10.54208000
115 1 39.65829047 0.00000000 10.54208000
116 1 39.65829047 3.62000000 10.54208000
117 1 39.65829047 7.24000000 10.54208000
118 1 39.65829047 10.86000000 10.54208000
119 1 39.65829047 14.48000000 10.54208000
120 1 39.65829047 18.10000000 10.54208000
121 1 52.71038607 0.00000000 10.54208000
122 1 52.71038607 3.62000000 10.54208000
123 1 52.71038607 7.24000000 10.54208000
124 1 52.71038607 10.86000000 10.54208000
125 1 52.71038607 14.48000000 10.54208000
126 1 52.71038607 18.10000000 10.54208000
127 1 65.76248167 0.00000000 10.54208000
128 1 65.76248167 3.62000000 10.54208000
129 1 65.76248167 7.24000000 10.54208000
130 1 65.76248167 10.86000000 10.54208000
131 1 65.76248167 14.48000000 10.54208000
132 1 65.76248167 18.10000000 10.54208000
133 1 78.81457727 0.00000000 10.54208000
134 1 78.81457727 3.62000000 10.54208000
135 1 78.81457727 7.24000000 10.54208000
136 1 78.81457727 10.86000000 10.54208000
137 1 78.81457727 14.48000000 10.54208000
138 1 78.81457727 18.10000000 10.54208000
139 1 91.86667287 0.00000000 10.54208000
140 1 91.86667287 3.62000000 10.54208000
141 1 91.86667287 7.24000000 10.54208000
142 1 91.86667287 10.86000000 10.54208000
143 1 91.86667287 14.48000000 10.54208000
144 1 91.86667287 18.10000000 10.54208000
145 1 0.50200368 0.00000000 23.59417000
146 1 0.50200368 3.62000000 23.59417000
147 1 0.50200368 7.24000000 23.59417000
148 1 0.50200368 10.86000000 23.59417000
149 1 0.50200368 14.48000000 23.59417000
150 1 0.50200368 18.10000000 23.59417000
151 1 13.55409928 0.00000000 23.59417000
152 1 13.55409928 3.62000000 23.59417000
153 1 13.55409928 7.24000000 23.59417000
154 1 13.55409928 10.86000000 23.59417000
155 1 13.55409928 14.48000000 23.59417000
156 1 13.55409928 18.10000000 23.59417000
157 1 26.60619488 0.00000000 23.59417000
158 1 26.60619488 3.62000000 23.59417000
159 1 26.60619488 7.24000000 23.59417000
160 1 26.60619488 10.86000000 23.59417000
161 1 26.60619488 14.48000000 23.59417000
162 1 26.60619488 18.10000000 23.59417000
163 1 39.65829047 0.00000000 23.59417000
164 1 39.65829047 3.62000000 23.59417000
165 1 39.65829047 7.24000000 23.59417000
166 1 39.65829047 10.86000000 23.59417000
167 1 39.65829047 14.48000000 23.59417000
168 1 39.65829047 18.10000000 23.59417000
169 1 52.71038607 0.00000000 23.59417000
170 1 52.71038607 3.62000000 23.59417000
171 1 52.71038607 7.24000000 23.59417000
172 1 52.71038607 10.86000000 23.59417000
173 1 52.71038607 14.48000000 23.59417000
174 1 52.71038607 18.10000000 23.59417000
175 1 65.76248167 0.00000000 23.59417000
176 1 65.76248167 3.62000000 23.59417000
177 1 65.76248167 7.24000000 23.59417000
178 1 65.76248167 10.86000000 23.59417000
179 1 65.76248167 14.48000000 23.59417000
180 1 65.76248167 18.10000000 23.59417000
181 1 78.81457727 0.00000000 23.59417000
182 1 78.81457727 3.62000000 23.59417000
183 1 78.81457727 7.24000000 23.59417000
184 1 78.81457727 10.86000000 23.59417000
185 1 78.81457727 14.48000000 23.59417000
186 1 78.81457727 18.10000000 23.59417000
187 1 91.86667287 0.00000000 23.59417000
188 1 91.86667287 3.62000000 23.59417000
189 1 91.86667287 7.24000000 23.59417000
190 1 91.86667287 10.86000000 23.59417000
191 1 91.86667287 14.48000000 23.59417000
192 1 91.86667287 18.10000000 23.59417000
193 1 4.01602942 1.81000000 12.55009000
194 1 4.01602942 5.43000000 12.55009000
195 1 4.01602942 9.05000000 12.55009000
196 1 4.01602942 12.67000000 12.55009000
197 1 4.01602942 16.29000000 12.55009000
198 1 4.01602942 19.91000000 12.55009000
199 1 17.06812501 1.81000000 12.55009000
200 1 17.06812501 5.43000000 12.55009000
201 1 17.06812501 9.05000000 12.55009000
202 1 17.06812501 12.67000000 12.55009000
203 1 17.06812501 16.29000000 12.55009000
204 1 17.06812501 19.91000000 12.55009000
205 1 30.12022061 1.81000000 12.55009000
206 1 30.12022061 5.43000000 12.55009000
207 1 30.12022061 9.05000000 12.55009000
208 1 30.12022061 12.67000000 12.55009000
209 1 30.12022061 16.29000000 12.55009000
210 1 30.12022061 19.91000000 12.55009000
211 1 43.17231621 1.81000000 12.55009000
212 1 43.17231621 5.43000000 12.55009000
213 1 43.17231621 9.05000000 12.55009000
214 1 43.17231621 12.67000000 12.55009000
215 1 43.17231621 16.29000000 12.55009000
216 1 43.17231621 19.91000000 12.55009000
217 1 56.22441181 1.81000000 12.55009000
218 1 56.22441181 5.43000000 12.55009000
219 1 56.22441181 9.05000000 12.55009000
220 1 56.22441181 12.67000000 12.55009000
221 1 56.22441181 16.29000000 12.55009000
222 1 56.22441181 19.91000000 12.55009000
223 1 69.27650741 1.81000000 12.55009000
224 1 69.27650741 5.43000000 12.55009000
225 1 69.27650741 9.05000000 12.55009000
226 1 69.27650741 12.67000000 12.55009000
227 1 69.27650741 16.29000000 12.55009000
228 1 69.27650741 19.91000000 12.55009000
229 1 82.32860301 1.81000000 12.55009000
230 1 82.32860301 5.43000000 12.55009000
231 1 82.32860301 9.05000000 12.55009000
232 1 82.32860301 12.67000000 12.55009000
233 1 82.32860301 16.29000000 12.55009000
234 1 82.32860301 19.91000000 12.55009000
235 1 95.38069861 1.81000000 12.55009000
236 1 95.38069861 5.43000000 12.55009000
237 1 95.38069861 9.05000000 12.55009000
238 1 95.38069861 12.67000000 12.55009000
239 1 95.38069861 16.29000000 12.55009000
240 1 95.38069861 19.91000000 12.55009000
241 1 4.01602942 1.81000000 25.60219000
242 1 4.01602942 5.43000000 25.60219000
243 1 4.01602942 9.05000000 25.60219000
244 1 4.01602942 12.67000000 25.60219000
245 1 4.01602942 16.29000000 25.60219000
246 1 4.01602942 19.91000000 25.60219000
247 1 17.06812501 1.81000000 25.60219000
248 1 17.06812501 5.43000000 25.60219000
249 1 17.06812501 9.05000000 25.60219000
250 1 17.06812501 12.67000000 25.60219000
251 1 17.06812501 16.29000000 25.60219000
252 1 17.06812501 19.91000000 25.60219000
253 1 30.12022061 1.81000000 25.60219000
254 1 30.12022061 5.43000000 25.60219000
255 1 30.12022061 9.05000000 25.60219000
256 1 30.12022061 12.67000000 25.60219000
257 1 30.12022061 16.29000000 25.60219000
258 1 30.12022061 19.91000000 25.60219000
259 1 43.17231621 1.81000000 25.60219000
260 1 43.17231621 5.43000000 25.60219000
261 1 43.17231621 9.05000000 25.60219000
262 1 43.17231621 12.67000000 25.60219000
263 1 43.17231621 16.29000000 25.60219000
264 1 43.17231621 19.91000000 25.60219000
265 1 56.22441181 1.81000000 25.60219000
266 1 56.22441181 5.43000000 25.60219000
267 1 56.22441181 9.05000000 25.60219000
268 1 56.22441181 12.67000000 25.60219000
269 1 56.22441181 16.29000000 25.60219000
270 1 56.22441181 19.91000000 25.60219000
271 1 69.27650741 1.81000000 25.60219000
272 1 69.27650741 5.43000000 25.60219000
273 1 69.27650741 9.05000000 25.60219000
274 1 69.27650741 12.67000000 25.60219000
275 1 69.27650741 16.29000000 25.60219000
276 1 69.27650741 19.91000000 25.60219000
277 1 82.32860301 1.81000000 25.60219000
278 1 82.32860301 5.43000000 25.60219000
279 1 82.32860301 9.05000000 25.60219000
280 1 82.32860301 12.67000000 25.60219000
281 1 82.32860301 16.29000000 25.60219000
282 1 82.32860301 19.91000000 25.60219000
283 1 95.38069861 1.81000000 25.60219000
284 1 95.38069861 5.43000000 25.60219000
285 1 95.38069861 9.05000000 25.60219000
286 1 95.38069861 12.67000000 25.60219000
287 1 95.38069861 16.29000000 25.60219000
288 1 95.38069861 19.91000000 25.60219000
289 1 3.01202206 0.00000000 11.04408000
290 1 3.01202206 3.62000000 11.04408000
291 1 3.01202206 7.24000000 11.04408000
292 1 3.01202206 10.86000000 11.04408000
293 1 3.01202206 14.48000000 11.04408000
294 1 3.01202206 18.10000000 11.04408000
295 1 16.06411766 0.00000000 11.04408000
296 1 16.06411766 3.62000000 11.04408000
297 1 16.06411766 7.24000000 11.04408000
298 1 16.06411766 10.86000000 11.04408000
299 1 16.06411766 14.48000000 11.04408000
300 1 16.06411766 18.10000000 11.04408000
301 1 29.11621326 0.00000000 11.04408000
302 1 29.11621326 3.62000000 11.04408000
303 1 29.11621326 7.24000000 11.04408000
304 1 29.11621326 10.86000000 11.04408000
305 1 29.11621326 14.48000000 11.04408000
306 1 29.11621326 18.10000000 11.04408000
307 1 42.16830886 0.00000000 11.04408000
308 1 42.16830886 3.62000000 11.04408000
309 1 42.16830886 7.24000000 11.04408000
310 1 42.16830886 10.86000000 11.04408000
311 1 42.16830886 14.48000000 11.04408000
312 1 42.16830886 18.10000000 11.04408000
313 1 55.22040446 0.00000000 11.04408000
314 1 55.22040446 3.62000000 11.04408000
315 1 55.22040446 7.24000000 11.04408000
316 1 55.22040446 10.86000000 11.04408000
317 1 55.22040446 14.48000000 11.04408000
318 1 55.22040446 18.10000000 11.04408000
319 1 68.27250006 0.00000000 11.04408000
320 1 68.27250006 3.62000000 11.04408000
321 1 68.27250006 7.24000000 11.04408000
322 1 68.27250006 10.86000000 11.04408000
323 1 68.27250006 14.48000000 11.04408000
324 1 68.27250006 18.10000000 11.04408000
325 1 81.32459566 0.00000000 11.04408000
326 1 81.32459566 3.62000000 11.04408000
327 1 81.32459566 7.24000000 11.04408000
328 1 81.32459566 10.86000000 11.04408000
329 1 81.32459566 14.48000000 11.04408000
330 1 81.32459566 18.10000000 11.04408000
331 1 94.37669126 0.00000000 11.04408000
332 1 94.37669126 3.62000000 11.04408000
333 1 94.37669126 7.24000000 11.04408000
334 1 94.37669126 10.86000000 11.04408000
335 1 94.37669126 14.48000000 11.04408000
336 1 94.37669126 18.10000000 11.04408000
337 1 3.01202206 0.00000000 24.09618000
338 1 3.01202206 3.62000000 24.09618000
339 1 3.01202206 7.24000000 24.09618000
340 1 3.01202206 10.86000000 24.09618000
341 1 3.01202206 14.48000000 24.09618000
342 1 3.01202206 18.10000000 24.09618000
343 1 16.06411766 0.00000000 24.09618000
344 1 16.06411766 3.62000000 24.09618000
345 1 16.06411766 7.24000000 24.09618000
346 1 16.06411766 10.86000000 24.09618000
347 1 16.06411766 14.48000000 24.09618000
348 1 16.06411766 18.10000000 24.09618000
349 1 29.11621326 0.00000000 24.09618000
350 1 29.11621326 3.62000000 24.09618000
351 1 29.11621326 7.24000000 24.09618000
352 1 29.11621326 10.86000000 24.09618000
353 1 29.11621326 14.48000000 24.09618000
354 1 29.11621326 18.10000000 24.09618000
355 1 42.16830886 0.00000000 24.09618000
356 1 42.16830886 3.62000000 24.09618000
357 1 42.16830886 7.24000000 24.09618000
358 1 42.16830886 10.86000000 24.09618000
359 1 42.16830886 14.48000000 24.09618000
360 1 42.16830886 18.10000000 24.09618000
361 1 55.22040446 0.00000000 24.09618000
362 1 55.22040446 3.62000000 24.09618000
363 1 55.22040446 7.24000000 24.09618000
364 1 55.22040446 10.86000000 24.09618000
365 1 55.22040446 14.48000000 24.09618000
366 1 55.22040446 18.10000000 24.09618000
367 1 68.27250006 0.00000000 24.09618000
368 1 68.27250006 3.62000000 24.09618000
369 1 68.27250006 7.24000000 24.09618000
370 1 68.27250006 10.86000000 24.09618000
371 1 68.27250006 14.48000000 24.09618000
372 1 68.27250006 18.10000000 24.09618000
373 1 81.32459566 0.00000000 24.09618000
374 1 81.32459566 3.62000000 24.09618000
375 1 81.32459566 7.24000000 24.09618000
376 1 81.32459566 10.86000000 24.09618000
377 1 81.32459566 14.48000000 24.09618000
378 1 81.32459566 18.10000000 24.09618000
379 1 94.37669126 0.00000000 24.09618000
380 1 94.37669126 3.62000000 24.09618000
381 1 94.37669126 7.24000000 24.09618000
382 1 94.37669126 10.86000000 24.09618000
383 1 94.37669126 14.48000000 24.09618000
384 1 94.37669126 18.10000000 24.09618000
385 1 5.52204045 0.00000000 11.54608000
386 1 5.52204045 3.62000000 11.54608000
387 1 5.52204045 7.24000000 11.54608000
388 1 5.52204045 10.86000000 11.54608000
389 1 5.52204045 14.48000000 11.54608000
390 1 5.52204045 18.10000000 11.54608000
391 1 18.57413604 0.00000000 11.54608000
392 1 18.57413604 3.62000000 11.54608000
393 1 18.57413604 7.24000000 11.54608000
394 1 18.57413604 10.86000000 11.54608000
395 1 18.57413604 14.48000000 11.54608000
396 1 18.57413604 18.10000000 11.54608000
397 1 31.62623164 0.00000000 11.54608000
398 1 31.62623164 3.62000000 11.54608000
399 1 31.62623164 7.24000000 11.54608000
400 1 31.62623164 10.86000000 11.54608000
401 1 31.62623164 14.48000000 11.54608000
402 1 31.62623164 18.10000000 11.54608000
403 1 44.67832724 0.00000000 11.54608000
404 1 44.67832724 3.62000000 11.54608000
405 1 44.67832724 7.24000000 11.54608000
406 1 44.67832724 10.86000000 11.54608000
407 1 44.67832724 14.48000000 11.54608000
408 1 44.67832724 18.10000000 11.54608000
409 1 57.73042284 0.00000000 11.54608000
410 1 57.73042284 3.62000000 11.54608000
411 1 57.73042284 7.24000000 11.54608000
412 1 57.73042284 10.86000000 11.54608000
413 1 57.73042284 14.48000000 11.54608000
414 1 57.73042284 18.10000000 11.54608000
415 1 70.78251844 0.00000000 11.54608000
416 1 70.78251844 3.62000000 11.54608000
417 1 70.78251844 7.24000000 11.54608000
418 1 70.78251844 10.86000000 11.54608000
419 1 70.78251844 14.48000000 11.54608000
420 1 70.78251844 18.10000000 11.54608000
421 1 83.83461404 0.00000000 11.54608000
422 1 83.83461404 3.62000000 11.54608000
423 1 83.83461404 7.24000000 11.54608000
424 1 83.83461404 10.86000000 11.54608000
425 1 83.83461404 14.48000000 11.54608000
426 1 83.83461404 18.10000000 11.54608000
427 1 96.88670964 0.00000000 11.54608000
428 1 96.88670964 3.62000000 11.54608000
429 1 96.88670964 7.24000000 11.54608000
430 1 96.88670964 10.86000000 11.54608000
431 1 96.88670964 14.48000000 11.54608000
432 1 96.88670964 18.10000000 11.54608000
433 1 5.52204045 0.00000000 24.59818000
434 1 5.52204045 3.62000000 24.59818000
435 1 5.52204045 7.24000000 24.59818000
436 1 5.52204045 10.86000000 24.59818000
437 1 5.52204045 14.48000000 24.59818000
438 1 5.52204045 18.10000000 24.59818000
439 1 18.57413604 0.00000000 24.59818000
440 1 18.57413604 3.62000000 24.59818000
441 1 18.57413604 7.24000000 24.59818000
442 1 18.57413604 10.86000000 24.59818000
443 1 18.57413604 14.48000000 24.59818000
444 1 18.57413604 18.10000000 24.59818000
445 1 31.62623164 0.00000000 24.59818000
446 1 31.62623164 3.62000000 24.59818000
447 1 31.62623164 7.24000000 24.59818000
448 1 31.62623164 10.86000000 24.59818000
449 1 31.62623164 14.48000000 24.59818000
450 1 31.62623164 18.10000000 24.59818000
451 1 44.67832724 0.00000000 24.59818000
452 1 44.67832724 3.62000000 24.59818000
453 1 44.67832724 7.24000000 24.59818000
454 1 44.67832724 10.86000000 24.59818000
455 1 44.67832724 14.48000000 24.59818000
456 1 44.67832724 18.10000000 24.59818000
457 1 57.73042284 0.00000000 24.59818000
458 1 57.73042284 3.62000000 24.59818000
459 1 57.73042284 7.24000000 24.59818000
460 1 57.73042284 10.86000000 24.59818000
461 1 57.73042284 14.48000000 24.59818000
462 1 57.73042284 18.10000000 24.59818000
463 1 70.78251844 0.00000000 24.59818000
464 1 70.78251844 3.62000000 24.59818000
465 1 70.78251844 7.24000000 24.59818000
466 1 70.78251844 10.86000000 24.59818000
467 1 70.78251844 14.48000000 24.59818000
468 1 70.78251844 18.10000000 24.59818000
469 1 83.83461404 0.00000000 24.59818000
470 1 83.83461404 3.62000000 24.59818000
471 1 83.83461404 7.24000000 24.59818000
472 1 83.83461404 10.86000000 24.59818000
473 1 83.83461404 14.48000000 24.59818000
474 1 83.83461404 18.10000000 24.59818000
475 1 96.88670964 0.00000000 24.59818000
476 1 96.88670964 3.62000000 24.59818000
477 1 96.88670964 7.24000000 24.59818000
478 1 96.88670964 10.86000000 24.59818000
479 1 96.88670964 14.48000000 24.59818000
480 1 96.88670964 18.10000000 24.59818000
481 1 8.03205883 0.00000000 12.04809000
482 1 8.03205883 3.62000000 12.04809000
483 1 8.03205883 7.24000000 12.04809000
484 1 8.03205883 10.86000000 12.04809000
485 1 8.03205883 14.48000000 12.04809000
486 1 8.03205883 18.10000000 12.04809000
487 1 21.08415443 0.00000000 12.04809000
488 1 21.08415443 3.62000000 12.04809000
489 1 21.08415443 7.24000000 12.04809000
490 1 21.08415443 10.86000000 12.04809000
491 1 21.08415443 14.48000000 12.04809000
492 1 21.08415443 18.10000000 12.04809000
493 1 34.13625003 0.00000000 12.04809000
494 1 34.13625003 3.62000000 12.04809000
495 1 34.13625003 7.24000000 12.04809000
496 1 34.13625003 10.86000000 12.04809000
497 1 34.13625003 14.48000000 12.04809000
498 1 34.13625003 18.10000000 12.04809000
499 1 47.18834563 0.00000000 12.04809000
500 1 47.18834563 3.62000000 12.04809000
501 1 47.18834563 7.24000000 12.04809000
502 1 47.18834563 10.86000000 12.04809000
503 1 47.18834563 14.48000000 12.04809000
504 1 47.18834563 18.10000000 12.04809000
505 1 60.24044123 0.00000000 12.04809000
506 1 60.24044123 3.62000000 12.04809000
507 1 60.24044123 7.24000000 12.04809000
508 1 60.24044123 10.86000000 12.04809000
509 1 60.24044123 14.48000000 12.04809000
510 1 60.24044123 18.10000000 12.04809000
511 1 73.29253683 0.00000000 12.04809000
512 1 73.29253683 3.62000000 12.04809000
513 1 73.29253683 7.24000000 12.04809000
514 1 73.29253683 10.86000000 12.04809000
515 1 73.29253683 14.48000000 12.04809000
516 1 73.29253683 18.10000000 12.04809000
517 1 86.34463243 0.00000000 12.04809000
518 1 86.34463243 3.62000000 12.04809000
519 1 86.34463243 7.24000000 12.04809000
520 1 86.34463243 10.86000000 12.04809000
521 1 86.34463243 14.48000000 12.04809000
522 1 86.34463243 18.10000000 12.04809000
523 1 99.39672802 0.00000000 12.04809000
524 1 99.39672802 3.62000000 12.04809000
525 1 99.39672802 7.24000000 12.04809000
526 1 99.39672802 10.86000000 12.04809000
527 1 99.39672802 14.48000000 12.04809000
528 1 99.39672802 18.10000000 12.04809000
529 1 8.03205883 0.00000000 25.10018000
530 1 8.03205883 3.62000000 25.10018000
531 1 8.03205883 7.24000000 25.10018000
532 1 8.03205883 10.86000000 25.10018000
533 1 8.03205883 14.48000000 25.10018000
534 1 8.03205883 18.10000000 25.10018000
535 1 21.08415443 0.00000000 25.10018000
536 1 21.08415443 3.62000000 25.10018000
537 1 21.08415443 7.24000000 25.10018000
538 1 21.08415443 10.86000000 25.10018000
539 1 21.08415443 14.48000000 25.10018000
540 1 21.08415443 18.10000000 25.10018000
541 1 34.13625003 0.00000000 25.10018000
542 1 34.13625003 3.62000000 25.10018000
543 1 34.13625003 7.24000000 25.10018000
544 1 34.13625003 10.86000000 25.10018000
545 1 34.13625003 14.48000000 25.10018000
546 1 34.13625003 18.10000000 25.10018000
547 1 47.18834563 0.00000000 25.10018000
548 1 47.18834563 3.62000000 25.10018000
549 1 47.18834563 7.24000000 25.10018000
550 1 47.18834563 10.86000000 25.10018000
551 1 47.18834563 14.48000000 25.10018000
552 1 47.18834563 18.10000000 25.10018000
553 1 60.24044123 0.00000000 25.10018000
554 1 60.24044123 3.62000000 25.10018000
555 1 60.24044123 7.24000000 25.10018000
556 1 60.24044123 10.86000000 25.10018000
557 1 60.24044123 14.48000000 25.10018000
558 1 60.24044123 18.10000000 25.10018000
559 1 73.29253683 0.00000000 25.10018000
560 1 73.29253683 3.62000000 25.10018000
561 1 73.29253683 7.24000000 25.10018000
562 1 73.29253683 10.86000000 25.10018000
563 1 73.29253683 14.48000000 25.10018000
564 1 73.29253683 18.10000000 25.10018000
565 1 86.34463243 0.00000000 25.10018000
566 1 86.34463243 3.62000000 25.10018000
567 1 86.34463243 7.24000000 25.10018000
568 1 86.34463243 10.86000000 25.10018000
569 1 86.34463243 14.48000000 25.10018000
570 1 86.34463243 18.10000000 25.10018000
571 1 99.39672802 0.00000000 25.10018000
572 1 99.39672802 3.62000000 25.10018000
573 1 99.39672802 7.24000000 25.10018000
574 1 99.39672802 10.86000000 25.10018000
575 1 99.39672802 14.48000000 25.10018000
576 1 99.39672802 18.10000000 25.10018000
577 1 10.54207721 0.00000000 12.55009000
578 1 10.54207721 3.62000000 12.55009000
579 1 10.54207721 7.24000000 12.55009000
580 1 10.54207721 10.86000000 12.55009000
581 1 10.54207721 14.48000000 12.55009000
582 1 10.54207721 18.10000000 12.55009000
583 1 23.59417281 0.00000000 12.55009000
584 1 23.59417281 3.62000000 12.55009000
585 1 23.59417281 7.24000000 12.55009000
586 1 23.59417281 10.86000000 12.55009000
587 1 23.59417281 14.48000000 12.55009000
588 1 23.59417281 18.10000000 12.55009000
589 1 36.64626841 0.00000000 12.55009000
590 1 36.64626841 3.62000000 12.55009000
591 1 36.64626841 7.24000000 12.55009000
592 1 36.64626841 10.86000000 12.55009000
593 1 36.64626841 14.48000000 12.55009000
594 1 36.64626841 18.10000000 12.55009000
595 1 49.69836401 0.00000000 12.55009000
596 1 49.69836401 3.62000000 12.55009000
597 1 49.69836401 7.24000000 12.55009000
598 1 49.69836401 10.86000000 12.55009000
599 1 49.69836401 14.48000000 12.55009000
600 1 49.69836401 18.10000000 12.55009000
601 1 62.75045961 0.00000000 12.55009000
602 1 62.75045961 3.62000000 12.55009000
603 1 62.75045961 7.24000000 12.55009000
604 1 62.75045961 10.86000000 12.55009000
605 1 62.75045961 14.48000000 12.55009000
606 1 62.75045961 18.10000000 12.55009000
607 1 75.80255521 0.00000000 12.55009000
608 1 75.80255521 3.62000000 12.55009000
609 1 75.80255521 7.24000000 12.55009000
610 1 75.80255521 10.86000000 12.55009000
611 1 75.80255521 14.48000000 12.55009000
612 1 75.80255521 18.10000000 12.55009000
613 1 88.85465081 0.00000000 12.55009000
614 1 88.85465081 3.62000000 12.55009000
615 1 88.85465081 7.24000000 12.55009000
616 1 88.85465081 10.86000000 12.55009000
617 1 88.85465081 14.48000000 12.55009000
618 1 88.85465081 18.10000000 12.55009000
619 2 101.90674641 0.00000000 12.55009000
620 2 101.90674641 3.62000000 12.55009000
621 2 101.90674641 7.24000000 12.55009000
622 2 101.90674641 10.86000000 12.55009000
623 2 101.90674641 14.48000000 12.55009000
624 2 101.90674641 18.10000000 12.55009000
625 1 10.54207721 0.00000000 25.60219000
626 1 10.54207721 3.62000000 25.60219000
627 1 10.54207721 7.24000000 25.60219000
628 1 10.54207721 10.86000000 25.60219000
629 1 10.54207721 14.48000000 25.60219000
630 1 10.54207721 18.10000000 25.60219000
631 1 23.59417281 0.00000000 25.60219000
632 1 23.59417281 3.62000000 25.60219000
633 1 23.59417281 7.24000000 25.60219000
634 1 23.59417281 10.86000000 25.60219000
635 1 23.59417281 14.48000000 25.60219000
636 1 23.59417281 18.10000000 25.60219000
637 1 36.64626841 0.00000000 25.60219000
638 1 36.64626841 3.62000000 25.60219000
639 1 36.64626841 7.24000000 25.60219000
640 1 36.64626841 10.86000000 25.60219000
641 1 36.64626841 14.48000000 25.60219000
642 1 36.64626841 18.10000000 25.60219000
643 1 49.69836401 0.00000000 25.60219000
644 1 49.69836401 3.62000000 25.60219000
645 1 49.69836401 7.24000000 25.60219000
646 1 49.69836401 10.86000000 25.60219000
647 1 49.69836401 14.48000000 25.60219000
648 1 49.69836401 18.10000000 25.60219000
649 1 62.75045961 0.00000000 25.60219000
650 1 62.75045961 3.62000000 25.60219000
651 1 62.75045961 7.24000000 25.60219000
652 1 62.75045961 10.86000000 25.60219000
653 1 62.75045961 14.48000000 25.60219000
654 1 62.75045961 18.10000000 25.60219000
655 1 75.80255521 0.00000000 25.60219000
656 1 75.80255521 3.62000000 25.60219000
657 1 75.80255521 7.24000000 25.60219000
658 1 75.80255521 10.86000000 25.60219000
659 1 75.80255521 14.48000000 25.60219000
660 1 75.80255521 18.10000000 25.60219000
661 1 88.85465081 0.00000000 25.60219000
662 1 88.85465081 3.62000000 25.60219000
663 1 88.85465081 7.24000000 25.60219000
664 1 88.85465081 10.86000000 25.60219000
665 1 88.85465081 14.48000000 25.60219000
666 1 88.85465081 18.10000000 25.60219000
667 2 101.90674641 0.00000000 25.60219000
668 2 101.90674641 3.62000000 25.60219000
669 2 101.90674641 7.24000000 25.60219000
670 2 101.90674641 10.86000000 25.60219000
671 2 101.90674641 14.48000000 25.60219000
672 2 101.90674641 18.10000000 25.60219000
673 1 2.00801471 1.81000000 9.53807000
674 1 2.00801471 5.43000000 9.53807000
675 1 2.00801471 9.05000000 9.53807000
676 1 2.00801471 12.67000000 9.53807000
677 1 2.00801471 16.29000000 9.53807000
678 1 2.00801471 19.91000000 9.53807000
679 1 15.06011031 1.81000000 9.53807000
680 1 15.06011031 5.43000000 9.53807000
681 1 15.06011031 9.05000000 9.53807000
682 1 15.06011031 12.67000000 9.53807000
683 1 15.06011031 16.29000000 9.53807000
684 1 15.06011031 19.91000000 9.53807000
685 1 28.11220591 1.81000000 9.53807000
686 1 28.11220591 5.43000000 9.53807000
687 1 28.11220591 9.05000000 9.53807000
688 1 28.11220591 12.67000000 9.53807000
689 1 28.11220591 16.29000000 9.53807000
690 1 28.11220591 19.91000000 9.53807000
691 1 41.16430151 1.81000000 9.53807000
692 1 41.16430151 5.43000000 9.53807000
693 1 41.16430151 9.05000000 9.53807000
694 1 41.16430151 12.67000000 9.53807000
695 1 41.16430151 16.29000000 9.53807000
696 1 41.16430151 19.91000000 9.53807000
697 1 54.21639710 1.81000000 9.53807000
698 1 54.21639710 5.43000000 9.53807000
699 1 54.21639710 9.05000000 9.53807000
700 1 54.21639710 12.67000000 9.53807000
701 1 54.21639710 16.29000000 9.53807000
702 1 54.21639710 19.91000000 9.53807000
703 1 67.26849270 1.81000000 9.53807000
704 1 67.26849270 5.43000000 9.53807000
705 1 67.26849270 9.05000000 9.53807000
706 1 67.26849270 12.67000000 9.53807000
707 1 67.26849270 16.29000000 9.53807000
708 1 67.26849270 19.91000000 9.53807000
709 1 80.32058830 1.81000000 9.53807000
710 1 80.32058830 5.43000000 9.53807000
711 1 80.32058830 9.05000000 9.53807000
712 1 80.32058830 12.67000000 9.53807000
713 1 80.32058830 16.29000000 9.53807000
714 1 80.32058830 19.91000000 9.53807000
715 1 93.37268390 1.81000000 9.53807000
716 1 93.37268390 5.43000000 9.53807000
717 1 93.37268390 9.05000000 9.53807000
718 1 93.37268390 12.67000000 9.53807000
719 1 93.37268390 16.29000000 9.53807000
720 1 93.37268390 19.91000000 9.53807000
721 1 2.00801471 1.81000000 22.59017000
722 1 2.00801471 5.43000000 22.59017000
723 1 2.00801471 9.05000000 22.59017000