#LAMMPS input file of atoms generated by interface_master. The elements are: 1 Cu 
 9984 atoms 
 
1 atom types 
 
0.00000000 208.83352959 xlo xhi 
0.00000000 21.71999997 ylo yhi 
0.00000000 26.10419120 zlo zhi 

-0.00000000 0.00000000 0.00000000 xy xz yz 

Atoms 
 
1 1 1.5060110306737642 1.8099999975028758 12.0480882453901064
2 1 1.5060110306737635 5.4299999925086251 12.0480882453901064
3 1 1.5060110306737631 9.0499999875143757 12.0480882453901064
4 1 1.5060110306737624 12.6699999825201264 12.0480882453901064
5 1 1.5060110306737617 16.2899999775258735 12.0480882453901064
6 1 1.5060110306737613 19.9099999725316223 12.0480882453901064
7 1 14.5581066298463799 1.8099999975028758 12.0480882453901081
8 1 14.5581066298463799 5.4299999925086251 12.0480882453901081
9 1 14.5581066298463782 9.0499999875143757 12.0480882453901081
10 1 14.5581066298463782 12.6699999825201264 12.0480882453901081
11 1 14.5581066298463782 16.2899999775258735 12.0480882453901081
12 1 14.5581066298463764 19.9099999725316223 12.0480882453901081
13 1 27.6102022290189950 1.8099999975028758 12.0480882453901081
14 1 27.6102022290189950 5.4299999925086251 12.0480882453901081
15 1 27.6102022290189950 9.0499999875143757 12.0480882453901081
16 1 27.6102022290189915 12.6699999825201264 12.0480882453901081
17 1 27.6102022290189915 16.2899999775258735 12.0480882453901081
18 1 27.6102022290189915 19.9099999725316223 12.0480882453901081
19 1 40.6622978281916119 1.8099999975028758 12.0480882453901081
20 1 40.6622978281916119 5.4299999925086251 12.0480882453901081
21 1 40.6622978281916119 9.0499999875143757 12.0480882453901081
22 1 40.6622978281916119 12.6699999825201264 12.0480882453901081
23 1 40.6622978281916119 16.2899999775258735 12.0480882453901081
24 1 40.6622978281916119 19.9099999725316223 12.0480882453901081
25 1 53.7143934273642216 1.8099999975028758 12.0480882453901099
26 1 53.7143934273642216 5.4299999925086251 12.0480882453901099
27 1 53.7143934273642216 9.0499999875143757 12.0480882453901099
28 1 53.7143934273642216 12.6699999825201264 12.0480882453901099
29 1 53.7143934273642216 16.2899999775258735 12.0480882453901099
30 1 53.7143934273642216 19.9099999725316223 12.0480882453901099
31 1 66.7664890265368314 1.8099999975028758 12.0480882453901099
32 1 66.7664890265368314 5.4299999925086251 12.0480882453901099
33 1 66.7664890265368314 9.0499999875143757 12.0480882453901099
34 1 66.7664890265368314 12.6699999825201264 12.0480882453901099
35 1 66.7664890265368314 16.2899999775258735 12.0480882453901099
36 1 66.7664890265368314 19.9099999725316223 12.0480882453901099
37 1 79.8185846257094482 1.8099999975028758 12.0480882453901099
38 1 79.8185846257094482 5.4299999925086251 12.0480882453901099
39 1 79.8185846257094482 9.0499999875143757 12.0480882453901099
40 1 79.8185846257094482 12.6699999825201264 12.0480882453901099
41 1 79.8185846257094482 16.2899999775258735 12.0480882453901099
42 1 79.8185846257094482 19.9099999725316223 12.0480882453901099
43 1 92.8706802248820651 1.8099999975028758 12.0480882453901117
44 1 92.8706802248820651 5.4299999925086251 12.0480882453901117
45 1 92.8706802248820651 9.0499999875143757 12.0480882453901117
46 1 92.8706802248820651 12.6699999825201264 12.0480882453901117
47 1 92.8706802248820651 16.2899999775258735 12.0480882453901117
48 1 92.8706802248820651 19.9099999725316223 12.0480882453901117
49 1 1.5060110306737651 1.8099999975028771 25.1001838445627214
50 1 1.5060110306737644 5.4299999925086269 25.1001838445627214
51 1 1.5060110306737640 9.0499999875143757 25.1001838445627214
52 1 1.5060110306737633 12.6699999825201264 25.1001838445627214
53 1 1.5060110306737626 16.2899999775258770 25.1001838445627214
54 1 1.5060110306737622 19.9099999725316259 25.1001838445627214
55 1 14.5581066298463799 1.8099999975028771 25.1001838445627214
56 1 14.5581066298463799 5.4299999925086269 25.1001838445627214
57 1 14.5581066298463782 9.0499999875143757 25.1001838445627214
58 1 14.5581066298463782 12.6699999825201264 25.1001838445627214
59 1 14.5581066298463782 16.2899999775258770 25.1001838445627214
60 1 14.5581066298463764 19.9099999725316259 25.1001838445627214
61 1 27.6102022290189986 1.8099999975028771 25.1001838445627250
62 1 27.6102022290189986 5.4299999925086269 25.1001838445627250
63 1 27.6102022290189986 9.0499999875143757 25.1001838445627250
64 1 27.6102022290189950 12.6699999825201264 25.1001838445627250
65 1 27.6102022290189950 16.2899999775258770 25.1001838445627250
66 1 27.6102022290189950 19.9099999725316259 25.1001838445627250
67 1 40.6622978281916119 1.8099999975028771 25.1001838445627250
68 1 40.6622978281916119 5.4299999925086269 25.1001838445627250
69 1 40.6622978281916119 9.0499999875143757 25.1001838445627250
70 1 40.6622978281916119 12.6699999825201264 25.1001838445627250
71 1 40.6622978281916119 16.2899999775258770 25.1001838445627250
72 1 40.6622978281916119 19.9099999725316259 25.1001838445627250
73 1 53.7143934273642216 1.8099999975028771 25.1001838445627250
74 1 53.7143934273642216 5.4299999925086269 25.1001838445627250
75 1 53.7143934273642216 9.0499999875143757 25.1001838445627250
76 1 53.7143934273642216 12.6699999825201264 25.1001838445627250
77 1 53.7143934273642216 16.2899999775258770 25.1001838445627250
78 1 53.7143934273642216 19.9099999725316259 25.1001838445627250
79 1 66.7664890265368314 1.8099999975028771 25.1001838445627250
80 1 66.7664890265368314 5.4299999925086269 25.1001838445627250
81 1 66.7664890265368314 9.0499999875143757 25.1001838445627250
82 1 66.7664890265368314 12.6699999825201264 25.1001838445627250
83 1 66.7664890265368314 16.2899999775258770 25.1001838445627250
84 1 66.7664890265368314 19.9099999725316259 25.1001838445627250
85 1 79.8185846257094482 1.8099999975028771 25.1001838445627250
86 1 79.8185846257094482 5.4299999925086269 25.1001838445627250
87 1 79.8185846257094482 9.0499999875143757 25.1001838445627250
88 1 79.8185846257094482 12.6699999825201264 25.1001838445627250
89 1 79.8185846257094482 16.2899999775258770 25.1001838445627250
90 1 79.8185846257094482 19.9099999725316259 25.1001838445627250
91 1 92.8706802248820651 1.8099999975028771 25.1001838445627250
92 1 92.8706802248820651 5.4299999925086269 25.1001838445627250
93 1 92.8706802248820651 9.0499999875143757 25.1001838445627250
94 1 92.8706802248820651 12.6699999825201264 25.1001838445627250
95 1 92.8706802248820651 16.2899999775258770 25.1001838445627250
96 1 92.8706802248820651 19.9099999725316259 25.1001838445627250
97 1 0.5020036768912554 0.0000000000000010 10.5420772147163433
98 1 0.5020036768912548 3.6199999950057502 10.5420772147163433
99 1 0.5020036768912542 7.2399999900114995 10.5420772147163433
100 1 0.5020036768912537 10.8599999850172502 10.5420772147163433
101 1 0.5020036768912530 14.4799999800229990 10.5420772147163433
102 1 0.5020036768912525 18.0999999750287479 10.5420772147163433
103 1 13.5540992760638712 0.0000000000000010 10.5420772147163433
104 1 13.5540992760638712 3.6199999950057502 10.5420772147163433
105 1 13.5540992760638694 7.2399999900114995 10.5420772147163433
106 1 13.5540992760638694 10.8599999850172502 10.5420772147163433
107 1 13.5540992760638694 14.4799999800229990 10.5420772147163433
108 1 13.5540992760638677 18.0999999750287479 10.5420772147163433
109 1 26.6061948752364827 0.0000000000000010 10.5420772147163451
110 1 26.6061948752364827 3.6199999950057502 10.5420772147163451
111 1 26.6061948752364827 7.2399999900114995 10.5420772147163451
112 1 26.6061948752364827 10.8599999850172502 10.5420772147163451
113 1 26.6061948752364792 14.4799999800229990 10.5420772147163451
114 1 26.6061948752364792 18.0999999750287479 10.5420772147163451
115 1 39.6582904744090996 0.0000000000000010 10.5420772147163451
116 1 39.6582904744090996 3.6199999950057502 10.5420772147163451
117 1 39.6582904744090996 7.2399999900114995 10.5420772147163451
118 1 39.6582904744090996 10.8599999850172502 10.5420772147163451
119 1 39.6582904744090996 14.4799999800229990 10.5420772147163451
120 1 39.6582904744090996 18.0999999750287479 10.5420772147163451
121 1 52.7103860735817165 0.0000000000000010 10.5420772147163451
122 1 52.7103860735817165 3.6199999950057502 10.5420772147163451
123 1 52.7103860735817165 7.2399999900114995 10.5420772147163451
124 1 52.7103860735817165 10.8599999850172502 10.5420772147163451
125 1 52.7103860735817165 14.4799999800229990 10.5420772147163451
126 1 52.7103860735817165 18.0999999750287479 10.5420772147163451
127 1 65.7624816727543333 0.0000000000000010 10.5420772147163468
128 1 65.7624816727543333 3.6199999950057502 10.5420772147163468
129 1 65.7624816727543333 7.2399999900114995 10.5420772147163468
130 1 65.7624816727543333 10.8599999850172502 10.5420772147163468
131 1 65.7624816727543333 14.4799999800229990 10.5420772147163468
132 1 65.7624816727543333 18.0999999750287479 10.5420772147163468
133 1 78.8145772719269502 0.0000000000000010 10.5420772147163468
134 1 78.8145772719269502 3.6199999950057502 10.5420772147163468
135 1 78.8145772719269502 7.2399999900114995 10.5420772147163468
136 1 78.8145772719269502 10.8599999850172502 10.5420772147163468
137 1 78.8145772719269502 14.4799999800229990 10.5420772147163468
138 1 78.8145772719269502 18.0999999750287479 10.5420772147163468
139 1 91.8666728710995528 0.0000000000000010 10.5420772147163468
140 1 91.8666728710995528 3.6199999950057502 10.5420772147163468
141 1 91.8666728710995528 7.2399999900114995 10.5420772147163468
142 1 91.8666728710995528 10.8599999850172502 10.5420772147163468
143 1 91.8666728710995528 14.4799999800229990 10.5420772147163468
144 1 91.8666728710995528 18.0999999750287479 10.5420772147163468
145 1 0.5020036768912565 0.0000000000000022 23.5941728138889601
146 1 0.5020036768912559 3.6199999950057515 23.5941728138889601
147 1 0.5020036768912554 7.2399999900115013 23.5941728138889601
148 1 0.5020036768912548 10.8599999850172502 23.5941728138889601
149 1 0.5020036768912541 14.4799999800229990 23.5941728138889601
150 1 0.5020036768912536 18.0999999750287515 23.5941728138889601
151 1 13.5540992760638730 0.0000000000000022 23.5941728138889601
152 1 13.5540992760638730 3.6199999950057515 23.5941728138889601
153 1 13.5540992760638712 7.2399999900115013 23.5941728138889601
154 1 13.5540992760638712 10.8599999850172502 23.5941728138889601
155 1 13.5540992760638712 14.4799999800229990 23.5941728138889601
156 1 13.5540992760638694 18.0999999750287515 23.5941728138889601
157 1 26.6061948752364863 0.0000000000000022 23.5941728138889601
158 1 26.6061948752364863 3.6199999950057515 23.5941728138889601
159 1 26.6061948752364863 7.2399999900115013 23.5941728138889601
160 1 26.6061948752364863 10.8599999850172502 23.5941728138889601
161 1 26.6061948752364827 14.4799999800229990 23.5941728138889601
162 1 26.6061948752364827 18.0999999750287515 23.5941728138889601
163 1 39.6582904744090996 0.0000000000000022 23.5941728138889601
164 1 39.6582904744090996 3.6199999950057515 23.5941728138889601
165 1 39.6582904744090996 7.2399999900115013 23.5941728138889601
166 1 39.6582904744090996 10.8599999850172502 23.5941728138889601
167 1 39.6582904744090996 14.4799999800229990 23.5941728138889601
168 1 39.6582904744090996 18.0999999750287515 23.5941728138889601
169 1 52.7103860735817165 0.0000000000000022 23.5941728138889601
170 1 52.7103860735817165 3.6199999950057515 23.5941728138889601
171 1 52.7103860735817165 7.2399999900115013 23.5941728138889601
172 1 52.7103860735817165 10.8599999850172502 23.5941728138889601
173 1 52.7103860735817165 14.4799999800229990 23.5941728138889601
174 1 52.7103860735817165 18.0999999750287515 23.5941728138889601
175 1 65.7624816727543333 0.0000000000000022 23.5941728138889601
176 1 65.7624816727543333 3.6199999950057515 23.5941728138889601
177 1 65.7624816727543333 7.2399999900115013 23.5941728138889601
178 1 65.7624816727543333 10.8599999850172502 23.5941728138889601
179 1 65.7624816727543333 14.4799999800229990 23.5941728138889601
180 1 65.7624816727543333 18.0999999750287515 23.5941728138889601
181 1 78.8145772719269502 0.0000000000000022 23.5941728138889637
182 1 78.8145772719269502 3.6199999950057515 23.5941728138889637
183 1 78.8145772719269502 7.2399999900115013 23.5941728138889637
184 1 78.8145772719269502 10.8599999850172502 23.5941728138889637
185 1 78.8145772719269502 14.4799999800229990 23.5941728138889637
186 1 78.8145772719269502 18.0999999750287515 23.5941728138889637
187 1 91.8666728710995528 0.0000000000000022 23.5941728138889637
188 1 91.8666728710995528 3.6199999950057515 23.5941728138889637
189 1 91.8666728710995528 7.2399999900115013 23.5941728138889637
190 1 91.8666728710995528 10.8599999850172502 23.5941728138889637
191 1 91.8666728710995528 14.4799999800229990 23.5941728138889637
192 1 91.8666728710995528 18.0999999750287515 23.5941728138889637
193 1 4.0160294151300366 1.8099999975028758 12.5500919222813607
194 1 4.0160294151300358 5.4299999925086251 12.5500919222813607
195 1 4.0160294151300349 9.0499999875143757 12.5500919222813607
196 1 4.0160294151300349 12.6699999825201264 12.5500919222813607
197 1 4.0160294151300340 16.2899999775258735 12.5500919222813607
198 1 4.0160294151300331 19.9099999725316223 12.5500919222813607
199 1 17.0681250143026517 1.8099999975028758 12.5500919222813625
200 1 17.0681250143026517 5.4299999925086251 12.5500919222813625
201 1 17.0681250143026517 9.0499999875143757 12.5500919222813625
202 1 17.0681250143026482 12.6699999825201264 12.5500919222813625
203 1 17.0681250143026482 16.2899999775258735 12.5500919222813625
204 1 17.0681250143026482 19.9099999725316223 12.5500919222813625
205 1 30.1202206134752615 1.8099999975028758 12.5500919222813625
206 1 30.1202206134752615 5.4299999925086251 12.5500919222813625
207 1 30.1202206134752615 9.0499999875143757 12.5500919222813625
208 1 30.1202206134752579 12.6699999825201264 12.5500919222813625
209 1 30.1202206134752579 16.2899999775258735 12.5500919222813625
210 1 30.1202206134752579 19.9099999725316223 12.5500919222813625
211 1 43.1723162126478783 1.8099999975028758 12.5500919222813625
212 1 43.1723162126478783 5.4299999925086251 12.5500919222813625
213 1 43.1723162126478783 9.0499999875143757 12.5500919222813625
214 1 43.1723162126478783 12.6699999825201264 12.5500919222813625
215 1 43.1723162126478783 16.2899999775258735 12.5500919222813625
216 1 43.1723162126478783 19.9099999725316223 12.5500919222813625
217 1 56.2244118118204952 1.8099999975028758 12.5500919222813643
218 1 56.2244118118204952 5.4299999925086251 12.5500919222813643
219 1 56.2244118118204952 9.0499999875143757 12.5500919222813643
220 1 56.2244118118204952 12.6699999825201264 12.5500919222813643
221 1 56.2244118118204952 16.2899999775258735 12.5500919222813643
222 1 56.2244118118204952 19.9099999725316223 12.5500919222813643
223 1 69.2765074109931049 1.8099999975028758 12.5500919222813643
224 1 69.2765074109931049 5.4299999925086251 12.5500919222813643
225 1 69.2765074109931049 9.0499999875143757 12.5500919222813643
226 1 69.2765074109931049 12.6699999825201264 12.5500919222813643
227 1 69.2765074109931049 16.2899999775258735 12.5500919222813643
228 1 69.2765074109931049 19.9099999725316223 12.5500919222813643
229 1 82.3286030101657218 1.8099999975028758 12.5500919222813643
230 1 82.3286030101657218 5.4299999925086251 12.5500919222813643
231 1 82.3286030101657218 9.0499999875143757 12.5500919222813643
232 1 82.3286030101657218 12.6699999825201264 12.5500919222813643
233 1 82.3286030101657218 16.2899999775258735 12.5500919222813643
234 1 82.3286030101657218 19.9099999725316223 12.5500919222813643
235 1 95.3806986093383387 1.8099999975028758 12.5500919222813661
236 1 95.3806986093383387 5.4299999925086251 12.5500919222813661
237 1 95.3806986093383387 9.0499999875143757 12.5500919222813661
238 1 95.3806986093383387 12.6699999825201264 12.5500919222813661
239 1 95.3806986093383387 16.2899999775258735 12.5500919222813661
240 1 95.3806986093383387 19.9099999725316223 12.5500919222813661
241 1 4.0160294151300375 1.8099999975028771 25.6021875214539776
242 1 4.0160294151300366 5.4299999925086269 25.6021875214539776
243 1 4.0160294151300358 9.0499999875143757 25.6021875214539776
244 1 4.0160294151300358 12.6699999825201264 25.6021875214539776
245 1 4.0160294151300349 16.2899999775258770 25.6021875214539776
246 1 4.0160294151300340 19.9099999725316259 25.6021875214539776
247 1 17.0681250143026553 1.8099999975028771 25.6021875214539776
248 1 17.0681250143026553 5.4299999925086269 25.6021875214539776
249 1 17.0681250143026553 9.0499999875143757 25.6021875214539776
250 1 17.0681250143026517 12.6699999825201264 25.6021875214539776
251 1 17.0681250143026517 16.2899999775258770 25.6021875214539776
252 1 17.0681250143026517 19.9099999725316259 25.6021875214539776
253 1 30.1202206134752650 1.8099999975028771 25.6021875214539811
254 1 30.1202206134752650 5.4299999925086269 25.6021875214539811
255 1 30.1202206134752650 9.0499999875143757 25.6021875214539811
256 1 30.1202206134752615 12.6699999825201264 25.6021875214539811
257 1 30.1202206134752615 16.2899999775258770 25.6021875214539811
258 1 30.1202206134752615 19.9099999725316259 25.6021875214539811
259 1 43.1723162126478783 1.8099999975028771 25.6021875214539811
260 1 43.1723162126478783 5.4299999925086269 25.6021875214539811
261 1 43.1723162126478783 9.0499999875143757 25.6021875214539811
262 1 43.1723162126478783 12.6699999825201264 25.6021875214539811
263 1 43.1723162126478783 16.2899999775258770 25.6021875214539811
264 1 43.1723162126478783 19.9099999725316259 25.6021875214539811
265 1 56.2244118118204952 1.8099999975028771 25.6021875214539811
266 1 56.2244118118204952 5.4299999925086269 25.6021875214539811
267 1 56.2244118118204952 9.0499999875143757 25.6021875214539811
268 1 56.2244118118204952 12.6699999825201264 25.6021875214539811
269 1 56.2244118118204952 16.2899999775258770 25.6021875214539811
270 1 56.2244118118204952 19.9099999725316259 25.6021875214539811
271 1 69.2765074109931049 1.8099999975028771 25.6021875214539811
272 1 69.2765074109931049 5.4299999925086269 25.6021875214539811
273 1 69.2765074109931049 9.0499999875143757 25.6021875214539811
274 1 69.2765074109931049 12.6699999825201264 25.6021875214539811
275 1 69.2765074109931049 16.2899999775258770 25.6021875214539811
276 1 69.2765074109931049 19.9099999725316259 25.6021875214539811
277 1 82.3286030101657218 1.8099999975028771 25.6021875214539811
278 1 82.3286030101657218 5.4299999925086269 25.6021875214539811
279 1 82.3286030101657218 9.0499999875143757 25.6021875214539811
280 1 82.3286030101657218 12.6699999825201264 25.6021875214539811
281 1 82.3286030101657218 16.2899999775258770 25.6021875214539811
282 1 82.3286030101657218 19.9099999725316259 25.6021875214539811
283 1 95.3806986093383387 1.8099999975028771 25.6021875214539811
284 1 95.3806986093383387 5.4299999925086269 25.6021875214539811
285 1 95.3806986093383387 9.0499999875143757 25.6021875214539811
286 1 95.3806986093383387 12.6699999825201264 25.6021875214539811
287 1 95.3806986093383387 16.2899999775258770 25.6021875214539811
288 1 95.3806986093383387 19.9099999725316259 25.6021875214539811
289 1 3.0120220613475270 0.0000000000000010 11.0440808916075976
290 1 3.0120220613475266 3.6199999950057502 11.0440808916075976
291 1 3.0120220613475257 7.2399999900114995 11.0440808916075976
292 1 3.0120220613475253 10.8599999850172502 11.0440808916075976
293 1 3.0120220613475248 14.4799999800229990 11.0440808916075976
294 1 3.0120220613475244 18.0999999750287479 11.0440808916075976
295 1 16.0641176605201430 0.0000000000000010 11.0440808916075976
296 1 16.0641176605201430 3.6199999950057502 11.0440808916075976
297 1 16.0641176605201430 7.2399999900114995 11.0440808916075976
298 1 16.0641176605201430 10.8599999850172502 11.0440808916075976
299 1 16.0641176605201395 14.4799999800229990 11.0440808916075976
300 1 16.0641176605201395 18.0999999750287479 11.0440808916075976
301 1 29.1162132596927563 0.0000000000000010 11.0440808916075994
302 1 29.1162132596927563 3.6199999950057502 11.0440808916075994
303 1 29.1162132596927563 7.2399999900114995 11.0440808916075994
304 1 29.1162132596927563 10.8599999850172502 11.0440808916075994
305 1 29.1162132596927528 14.4799999800229990 11.0440808916075994
306 1 29.1162132596927528 18.0999999750287479 11.0440808916075994
307 1 42.1683088588653732 0.0000000000000010 11.0440808916075994
308 1 42.1683088588653732 3.6199999950057502 11.0440808916075994
309 1 42.1683088588653732 7.2399999900114995 11.0440808916075994
310 1 42.1683088588653732 10.8599999850172502 11.0440808916075994
311 1 42.1683088588653732 14.4799999800229990 11.0440808916075994
312 1 42.1683088588653732 18.0999999750287479 11.0440808916075994
313 1 55.2204044580379900 0.0000000000000010 11.0440808916075994
314 1 55.2204044580379900 3.6199999950057502 11.0440808916075994
315 1 55.2204044580379900 7.2399999900114995 11.0440808916075994
316 1 55.2204044580379900 10.8599999850172502 11.0440808916075994
317 1 55.2204044580379900 14.4799999800229990 11.0440808916075994
318 1 55.2204044580379900 18.0999999750287479 11.0440808916075994
319 1 68.2725000572106069 0.0000000000000010 11.0440808916076012
320 1 68.2725000572106069 3.6199999950057502 11.0440808916076012
321 1 68.2725000572106069 7.2399999900114995 11.0440808916076012
322 1 68.2725000572106069 10.8599999850172502 11.0440808916076012
323 1 68.2725000572106069 14.4799999800229990 11.0440808916076012
324 1 68.2725000572106069 18.0999999750287479 11.0440808916076012
325 1 81.3245956563832237 0.0000000000000010 11.0440808916076012
326 1 81.3245956563832237 3.6199999950057502 11.0440808916076012
327 1 81.3245956563832237 7.2399999900114995 11.0440808916076012
328 1 81.3245956563832237 10.8599999850172502 11.0440808916076012
329 1 81.3245956563832237 14.4799999800229990 11.0440808916076012
330 1 81.3245956563832237 18.0999999750287479 11.0440808916076012
331 1 94.3766912555558264 0.0000000000000010 11.0440808916076012
332 1 94.3766912555558264 3.6199999950057502 11.0440808916076012
333 1 94.3766912555558264 7.2399999900114995 11.0440808916076012
334 1 94.3766912555558264 10.8599999850172502 11.0440808916076012
335 1 94.3766912555558264 14.4799999800229990 11.0440808916076012
336 1 94.3766912555558264 18.0999999750287479 11.0440808916076012
337 1 3.0120220613475284 0.0000000000000023 24.0961764907802127
338 1 3.0120220613475279 3.6199999950057515 24.0961764907802127
339 1 3.0120220613475270 7.2399999900115013 24.0961764907802127
340 1 3.0120220613475266 10.8599999850172502 24.0961764907802127
341 1 3.0120220613475261 14.4799999800229990 24.0961764907802127
342 1 3.0120220613475257 18.0999999750287515 24.0961764907802127
343 1 16.0641176605201466 0.0000000000000023 24.0961764907802163
344 1 16.0641176605201466 3.6199999950057515 24.0961764907802163
345 1 16.0641176605201466 7.2399999900115013 24.0961764907802163
346 1 16.0641176605201466 10.8599999850172502 24.0961764907802163
347 1 16.0641176605201430 14.4799999800229990 24.0961764907802163
348 1 16.0641176605201430 18.0999999750287515 24.0961764907802163
349 1 29.1162132596927599 0.0000000000000023 24.0961764907802163
350 1 29.1162132596927599 3.6199999950057515 24.0961764907802163
351 1 29.1162132596927599 7.2399999900115013 24.0961764907802163
352 1 29.1162132596927599 10.8599999850172502 24.0961764907802163
353 1 29.1162132596927563 14.4799999800229990 24.0961764907802163
354 1 29.1162132596927563 18.0999999750287515 24.0961764907802163
355 1 42.1683088588653732 0.0000000000000023 24.0961764907802163
356 1 42.1683088588653732 3.6199999950057515 24.0961764907802163
357 1 42.1683088588653732 7.2399999900115013 24.0961764907802163
358 1 42.1683088588653732 10.8599999850172502 24.0961764907802163
359 1 42.1683088588653732 14.4799999800229990 24.0961764907802163
360 1 42.1683088588653732 18.0999999750287515 24.0961764907802163
361 1 55.2204044580379900 0.0000000000000023 24.0961764907802163
362 1 55.2204044580379900 3.6199999950057515 24.0961764907802163
363 1 55.2204044580379900 7.2399999900115013 24.0961764907802163
364 1 55.2204044580379900 10.8599999850172502 24.0961764907802163
365 1 55.2204044580379900 14.4799999800229990 24.0961764907802163
366 1 55.2204044580379900 18.0999999750287515 24.0961764907802163
367 1 68.2725000572106069 0.0000000000000023 24.0961764907802163
368 1 68.2725000572106069 3.6199999950057515 24.0961764907802163
369 1 68.2725000572106069 7.2399999900115013 24.0961764907802163
370 1 68.2725000572106069 10.8599999850172502 24.0961764907802163
371 1 68.2725000572106069 14.4799999800229990 24.0961764907802163
372 1 68.2725000572106069 18.0999999750287515 24.0961764907802163
373 1 81.3245956563832237 0.0000000000000023 24.0961764907802163
374 1 81.3245956563832237 3.6199999950057515 24.0961764907802163
375 1 81.3245956563832237 7.2399999900115013 24.0961764907802163
376 1 81.3245956563832237 10.8599999850172502 24.0961764907802163
377 1 81.3245956563832237 14.4799999800229990 24.0961764907802163
378 1 81.3245956563832237 18.0999999750287515 24.0961764907802163
379 1 94.3766912555558264 0.0000000000000023 24.0961764907802198
380 1 94.3766912555558264 3.6199999950057515 24.0961764907802198
381 1 94.3766912555558264 7.2399999900115013 24.0961764907802198
382 1 94.3766912555558264 10.8599999850172502 24.0961764907802198
383 1 94.3766912555558264 14.4799999800229990 24.0961764907802198
384 1 94.3766912555558264 18.0999999750287515 24.0961764907802198
385 1 5.5220404458037988 0.0000000000000011 11.5460845684988538
386 1 5.5220404458037979 3.6199999950057502 11.5460845684988538
387 1 5.5220404458037979 7.2399999900114995 11.5460845684988538
388 1 5.5220404458037970 10.8599999850172502 11.5460845684988538
389 1 5.5220404458037962 14.4799999800229990 11.5460845684988538
390 1 5.5220404458037962 18.0999999750287479 11.5460845684988538
391 1 18.5741360449764130 0.0000000000000011 11.5460845684988538
392 1 18.5741360449764130 3.6199999950057502 11.5460845684988538
393 1 18.5741360449764130 7.2399999900114995 11.5460845684988538
394 1 18.5741360449764130 10.8599999850172502 11.5460845684988538
395 1 18.5741360449764095 14.4799999800229990 11.5460845684988538
396 1 18.5741360449764095 18.0999999750287479 11.5460845684988538
397 1 31.6262316441490263 0.0000000000000011 11.5460845684988538
398 1 31.6262316441490263 3.6199999950057502 11.5460845684988538
399 1 31.6262316441490263 7.2399999900114995 11.5460845684988538
400 1 31.6262316441490263 10.8599999850172502 11.5460845684988538
401 1 31.6262316441490228 14.4799999800229990 11.5460845684988538
402 1 31.6262316441490228 18.0999999750287479 11.5460845684988538
403 1 44.6783272433216396 0.0000000000000011 11.5460845684988556
404 1 44.6783272433216396 3.6199999950057502 11.5460845684988556
405 1 44.6783272433216396 7.2399999900114995 11.5460845684988556
406 1 44.6783272433216396 10.8599999850172502 11.5460845684988556
407 1 44.6783272433216396 14.4799999800229990 11.5460845684988556
408 1 44.6783272433216396 18.0999999750287479 11.5460845684988556
409 1 57.7304228424942636 0.0000000000000011 11.5460845684988556
410 1 57.7304228424942636 3.6199999950057502 11.5460845684988556
411 1 57.7304228424942636 7.2399999900114995 11.5460845684988556
412 1 57.7304228424942636 10.8599999850172502 11.5460845684988556
413 1 57.7304228424942636 14.4799999800229990 11.5460845684988556
414 1 57.7304228424942636 18.0999999750287479 11.5460845684988556
415 1 70.7825184416668804 0.0000000000000011 11.5460845684988556
416 1 70.7825184416668804 3.6199999950057502 11.5460845684988556
417 1 70.7825184416668804 7.2399999900114995 11.5460845684988556
418 1 70.7825184416668804 10.8599999850172502 11.5460845684988556
419 1 70.7825184416668804 14.4799999800229990 11.5460845684988556
420 1 70.7825184416668804 18.0999999750287479 11.5460845684988556
421 1 83.8346140408394973 0.0000000000000011 11.5460845684988573
422 1 83.8346140408394973 3.6199999950057502 11.5460845684988573
423 1 83.8346140408394973 7.2399999900114995 11.5460845684988573
424 1 83.8346140408394973 10.8599999850172502 11.5460845684988573
425 1 83.8346140408394973 14.4799999800229990 11.5460845684988573
426 1 83.8346140408394973 18.0999999750287479 11.5460845684988573
427 1 96.8867096400121142 0.0000000000000011 11.5460845684988573
428 1 96.8867096400121142 3.6199999950057502 11.5460845684988573
429 1 96.8867096400121142 7.2399999900114995 11.5460845684988573
430 1 96.8867096400121142 10.8599999850172502 11.5460845684988573
431 1 96.8867096400121142 14.4799999800229990 11.5460845684988573
432 1 96.8867096400121142 18.0999999750287479 11.5460845684988573
433 1 5.5220404458037997 0.0000000000000023 24.5981801676714689
434 1 5.5220404458037988 3.6199999950057515 24.5981801676714689
435 1 5.5220404458037988 7.2399999900115013 24.5981801676714689
436 1 5.5220404458037979 10.8599999850172502 24.5981801676714689
437 1 5.5220404458037970 14.4799999800229990 24.5981801676714689
438 1 5.5220404458037970 18.0999999750287515 24.5981801676714689
439 1 18.5741360449764166 0.0000000000000023 24.5981801676714689
440 1 18.5741360449764166 3.6199999950057515 24.5981801676714689
441 1 18.5741360449764166 7.2399999900115013 24.5981801676714689
442 1 18.5741360449764166 10.8599999850172502 24.5981801676714689
443 1 18.5741360449764130 14.4799999800229990 24.5981801676714689
444 1 18.5741360449764130 18.0999999750287515 24.5981801676714689
445 1 31.6262316441490299 0.0000000000000023 24.5981801676714724
446 1 31.6262316441490299 3.6199999950057515 24.5981801676714724
447 1 31.6262316441490299 7.2399999900115013 24.5981801676714724
448 1 31.6262316441490299 10.8599999850172502 24.5981801676714724
449 1 31.6262316441490263 14.4799999800229990 24.5981801676714724