ITEM: TIMESTEP
157
ITEM: NUMBER OF ATOMS
9984
ITEM: BOX BOUNDS xy xz yz ss pp pp
-2.0883352958999991e-02 2.0846166736981272e+02 0.0000000000000000e+00
0.0000000000000000e+00 2.1719999970000000e+01 0.0000000000000000e+00
0.0000000000000000e+00 2.6104191199999999e+01 0.0000000000000000e+00
ITEM: ATOMS id type x y z c_eng
1 1 1.50601 1.81 12.0481 -3.43919
2 1 1.50601 5.43 12.0481 -3.43919
3 1 1.50601 9.05 12.0481 -3.43919
4 1 1.50601 12.67 12.0481 -3.43919
5 1 1.50601 16.29 12.0481 -3.43919
6 1 1.50601 19.91 12.0481 -3.43919
7 1 14.5581 1.81 12.0481 -3.54
8 1 14.5581 5.43 12.0481 -3.54
9 1 14.5581 9.05 12.0481 -3.54
10 1 14.5581 12.67 12.0481 -3.54
11 1 14.5581 16.29 12.0481 -3.54
12 1 14.5581 19.91 12.0481 -3.54
49 1 1.50601 1.81 25.1002 -3.43919
50 1 1.50601 5.43 25.1002 -3.43919
51 1 1.50601 9.05 25.1002 -3.43919
52 1 1.50601 12.67 25.1002 -3.43919
53 1 1.50601 16.29 25.1002 -3.43919
54 1 1.50601 19.91 25.1002 -3.43919
55 1 14.5581 1.81 25.1002 -3.54
56 1 14.5581 5.43 25.1002 -3.54
57 1 14.5581 9.05 25.1002 -3.54
58 1 14.5581 12.67 25.1002 -3.54
59 1 14.5581 16.29 25.1002 -3.54
60 1 14.5581 19.91 25.1002 -3.54
97 1 0.502004 0 10.5421 -2.83262
98 1 0.502004 3.62 10.5421 -2.83262
99 1 0.502004 7.24 10.5421 -2.83262
100 1 0.502004 10.86 10.5421 -2.83262
101 1 0.502004 14.48 10.5421 -2.83262
102 1 0.502004 18.1 10.5421 -2.83262
103 1 13.5541 0 10.5421 -3.54
104 1 13.5541 3.62 10.5421 -3.54
105 1 13.5541 7.24 10.5421 -3.54
106 1 13.5541 10.86 10.5421 -3.54
107 1 13.5541 14.48 10.5421 -3.54
108 1 13.5541 18.1 10.5421 -3.54
145 1 0.502004 0 23.5942 -2.83262
146 1 0.502004 3.62 23.5942 -2.83262
147 1 0.502004 7.24 23.5942 -2.83262
148 1 0.502004 10.86 23.5942 -2.83262
149 1 0.502004 14.48 23.5942 -2.83262
150 1 0.502004 18.1 23.5942 -2.83262
151 1 13.5541 0 23.5942 -3.54
152 1 13.5541 3.62 23.5942 -3.54
153 1 13.5541 7.24 23.5942 -3.54
154 1 13.5541 10.86 23.5942 -3.54
155 1 13.5541 14.48 23.5942 -3.54
156 1 13.5541 18.1 23.5942 -3.54
193 1 4.01603 1.81 12.5501 -3.54
194 1 4.01603 5.43 12.5501 -3.54
195 1 4.01603 9.05 12.5501 -3.54
196 1 4.01603 12.67 12.5501 -3.54
197 1 4.01603 16.29 12.5501 -3.54
198 1 4.01603 19.91 12.5501 -3.54
199 1 17.0681 1.81 12.5501 -3.54
200 1 17.0681 5.43 12.5501 -3.54
201 1 17.0681 9.05 12.5501 -3.54
202 1 17.0681 12.67 12.5501 -3.54
203 1 17.0681 16.29 12.5501 -3.54
204 1 17.0681 19.91 12.5501 -3.54
241 1 4.01603 1.81 25.6022 -3.54
242 1 4.01603 5.43 25.6022 -3.54
243 1 4.01603 9.05 25.6022 -3.54
244 1 4.01603 12.67 25.6022 -3.54
245 1 4.01603 16.29 25.6022 -3.54
246 1 4.01603 19.91 25.6022 -3.54
247 1 17.0681 1.81 25.6022 -3.54
248 1 17.0681 5.43 25.6022 -3.54
249 1 17.0681 9.05 25.6022 -3.54
250 1 17.0681 12.67 25.6022 -3.54
251 1 17.0681 16.29 25.6022 -3.54
252 1 17.0681 19.91 25.6022 -3.54
289 1 3.01202 0 11.0441 -3.54
290 1 3.01202 3.62 11.0441 -3.54
291 1 3.01202 7.24 11.0441 -3.54
292 1 3.01202 10.86 11.0441 -3.54
293 1 3.01202 14.48 11.0441 -3.54
294 1 3.01202 18.1 11.0441 -3.54
295 1 16.0641 0 11.0441 -3.54
296 1 16.0641 3.62 11.0441 -3.54
297 1 16.0641 7.24 11.0441 -3.54
298 1 16.0641 10.86 11.0441 -3.54
299 1 16.0641 14.48 11.0441 -3.54
300 1 16.0641 18.1 11.0441 -3.54
337 1 3.01202 0 24.0962 -3.54
338 1 3.01202 3.62 24.0962 -3.54
339 1 3.01202 7.24 24.0962 -3.54
340 1 3.01202 10.86 24.0962 -3.54
341 1 3.01202 14.48 24.0962 -3.54
342 1 3.01202 18.1 24.0962 -3.54
343 1 16.0641 0 24.0962 -3.54
344 1 16.0641 3.62 24.0962 -3.54
345 1 16.0641 7.24 24.0962 -3.54
346 1 16.0641 10.86 24.0962 -3.54
347 1 16.0641 14.48 24.0962 -3.54
348 1 16.0641 18.1 24.0962 -3.54
385 1 5.52204 0 11.5461 -3.54
386 1 5.52204 3.62 11.5461 -3.54
387 1 5.52204 7.24 11.5461 -3.54
388 1 5.52204 10.86 11.5461 -3.54
389 1 5.52204 14.48 11.5461 -3.54
390 1 5.52204 18.1 11.5461 -3.54
433 1 5.52204 0 24.5982 -3.54
434 1 5.52204 3.62 24.5982 -3.54
435 1 5.52204 7.24 24.5982 -3.54
436 1 5.52204 10.86 24.5982 -3.54
437 1 5.52204 14.48 24.5982 -3.54
438 1 5.52204 18.1 24.5982 -3.54
481 1 8.03206 0 12.0481 -3.54
482 1 8.03206 3.62 12.0481 -3.54
483 1 8.03206 7.24 12.0481 -3.54
484 1 8.03206 10.86 12.0481 -3.54
485 1 8.03206 14.48 12.0481 -3.54
486 1 8.03206 18.1 12.0481 -3.54
529 1 8.03206 0 25.1002 -3.54
530 1 8.03206 3.62 25.1002 -3.54
531 1 8.03206 7.24 25.1002 -3.54
532 1 8.03206 10.86 25.1002 -3.54
533 1 8.03206 14.48 25.1002 -3.54
534 1 8.03206 18.1 25.1002 -3.54
577 1 10.5421 0 12.5501 -3.54
578 1 10.5421 3.62 12.5501 -3.54
579 1 10.5421 7.24 12.5501 -3.54
580 1 10.5421 10.86 12.5501 -3.54
581 1 10.5421 14.48 12.5501 -3.54
582 1 10.5421 18.1 12.5501 -3.54
625 1 10.5421 0 25.6022 -3.54
626 1 10.5421 3.62 25.6022 -3.54
627 1 10.5421 7.24 25.6022 -3.54
628 1 10.5421 10.86 25.6022 -3.54
629 1 10.5421 14.48 25.6022 -3.54
630 1 10.5421 18.1 25.6022 -3.54
673 1 2.00801 1.81 9.53807 -3.43896
674 1 2.00801 5.43 9.53807 -3.43896
675 1 2.00801 9.05 9.53807 -3.43896
676 1 2.00801 12.67 9.53807 -3.43896
677 1 2.00801 16.29 9.53807 -3.43896
678 1 2.00801 19.91 9.53807 -3.43896
679 1 15.0601 1.81 9.53807 -3.54
680 1 15.0601 5.43 9.53807 -3.54
681 1 15.0601 9.05 9.53807 -3.54
682 1 15.0601 12.67 9.53807 -3.54
683 1 15.0601 16.29 9.53807 -3.54
684 1 15.0601 19.91 9.53807 -3.54
721 1 2.00801 1.81 22.5902 -3.43896
722 1 2.00801 5.43 22.5902 -3.43896
723 1 2.00801 9.05 22.5902 -3.43896
724 1 2.00801 12.67 22.5902 -3.43896
725 1 2.00801 16.29 22.5902 -3.43896
726 1 2.00801 19.91 22.5902 -3.43896
727 1 15.0601 1.81 22.5902 -3.54
728 1 15.0601 5.43 22.5902 -3.54
729 1 15.0601 9.05 22.5902 -3.54
730 1 15.0601 12.67 22.5902 -3.54
731 1 15.0601 16.29 22.5902 -3.54
732 1 15.0601 19.91 22.5902 -3.54
769 1 1.00401 0 8.03206 -3.16894
770 1 1.00401 3.62 8.03206 -3.16894
771 1 1.00401 7.24 8.03206 -3.16894
772 1 1.00401 10.86 8.03206 -3.16894
773 1 1.00401 14.48 8.03206 -3.16894
774 1 1.00401 18.1 8.03206 -3.16894
775 1 14.0561 0 8.03206 -3.54
776 1 14.0561 3.62 8.03206 -3.54
777 1 14.0561 7.24 8.03206 -3.54
778 1 14.0561 10.86 8.03206 -3.54
779 1 14.0561 14.48 8.03206 -3.54
780 1 14.0561 18.1 8.03206 -3.54
817 1 1.00401 0 21.0842 -3.16894
818 1 1.00401 3.62 21.0842 -3.16894
819 1 1.00401 7.24 21.0842 -3.16894
820 1 1.00401 10.86 21.0842 -3.16894
821 1 1.00401 14.48 21.0842 -3.16894
822 1 1.00401 18.1 21.0842 -3.16894
823 1 14.0561 0 21.0842 -3.54
824 1 14.0561 3.62 21.0842 -3.54
825 1 14.0561 7.24 21.0842 -3.54
826 1 14.0561 10.86 21.0842 -3.54
827 1 14.0561 14.48 21.0842 -3.54
828 1 14.0561 18.1 21.0842 -3.54
865 1 4.51803 1.81 10.0401 -3.54
866 1 4.51803 5.43 10.0401 -3.54
867 1 4.51803 9.05 10.0401 -3.54
868 1 4.51803 12.67 10.0401 -3.54
869 1 4.51803 16.29 10.0401 -3.54
870 1 4.51803 19.91 10.0401 -3.54
913 1 4.51803 1.81 23.0922 -3.54
914 1 4.51803 5.43 23.0922 -3.54
915 1 4.51803 9.05 23.0922 -3.54
916 1 4.51803 12.67 23.0922 -3.54
917 1 4.51803 16.29 23.0922 -3.54
918 1 4.51803 19.91 23.0922 -3.54
961 1 3.51403 0 8.53406 -3.54
962 1 3.51403 3.62 8.53406 -3.54
963 1 3.51403 7.24 8.53406 -3.54
964 1 3.51403 10.86 8.53406 -3.54
965 1 3.51403 14.48 8.53406 -3.54
966 1 3.51403 18.1 8.53406 -3.54
967 1 16.5661 0 8.53406 -3.54
968 1 16.5661 3.62 8.53406 -3.54
969 1 16.5661 7.24 8.53406 -3.54
970 1 16.5661 10.86 8.53406 -3.54
971 1 16.5661 14.48 8.53406 -3.54
972 1 16.5661 18.1 8.53406 -3.54
1009 1 3.51403 0 21.5862 -3.54
1010 1 3.51403 3.62 21.5862 -3.54
1011 1 3.51403 7.24 21.5862 -3.54
1012 1 3.51403 10.86 21.5862 -3.54
1013 1 3.51403 14.48 21.5862 -3.54
1014 1 3.51403 18.1 21.5862 -3.54
1015 1 16.5661 0 21.5862 -3.54
1016 1 16.5661 3.62 21.5862 -3.54
1017 1 16.5661 7.24 21.5862 -3.54
1018 1 16.5661 10.86 21.5862 -3.54
1019 1 16.5661 14.48 21.5862 -3.54
1020 1 16.5661 18.1 21.5862 -3.54
1057 1 7.02805 1.81 10.5421 -3.54
1058 1 7.02805 5.43 10.5421 -3.54
1059 1 7.02805 9.05 10.5421 -3.54
1060 1 7.02805 12.67 10.5421 -3.54
1061 1 7.02805 16.29 10.5421 -3.54
1062 1 7.02805 19.91 10.5421 -3.54
1105 1 7.02805 1.81 23.5942 -3.54
1106 1 7.02805 5.43 23.5942 -3.54
1107 1 7.02805 9.05 23.5942 -3.54
1108 1 7.02805 12.67 23.5942 -3.54
1109 1 7.02805 16.29 23.5942 -3.54
1110 1 7.02805 19.91 23.5942 -3.54
1153 1 6.02404 0 9.03607 -3.54
1154 1 6.02404 3.62 9.03607 -3.54
1155 1 6.02404 7.24 9.03607 -3.54
1156 1 6.02404 10.86 9.03607 -3.54
1157 1 6.02404 14.48 9.03607 -3.54
1158 1 6.02404 18.1 9.03607 -3.54
1201 1 6.02404 0 22.0882 -3.54
1202 1 6.02404 3.62 22.0882 -3.54
1203 1 6.02404 7.24 22.0882 -3.54
1204 1 6.02404 10.86 22.0882 -3.54
1205 1 6.02404 14.48 22.0882 -3.54
1206 1 6.02404 18.1 22.0882 -3.54
1249 1 9.53807 1.81 11.0441 -3.54
1250 1 9.53807 5.43 11.0441 -3.54
1251 1 9.53807 9.05 11.0441 -3.54
1252 1 9.53807 12.67 11.0441 -3.54
1253 1 9.53807 16.29 11.0441 -3.54
1254 1 9.53807 19.91 11.0441 -3.54
1297 1 9.53807 1.81 24.0962 -3.54
1298 1 9.53807 5.43 24.0962 -3.54
1299 1 9.53807 9.05 24.0962 -3.54
1300 1 9.53807 12.67 24.0962 -3.54
1301 1 9.53807 16.29 24.0962 -3.54
1302 1 9.53807 19.91 24.0962 -3.54
1345 1 8.53406 0 9.53807 -3.54
1346 1 8.53406 3.62 9.53807 -3.54
1347 1 8.53406 7.24 9.53807 -3.54
1348 1 8.53406 10.86 9.53807 -3.54
1349 1 8.53406 14.48 9.53807 -3.54
1350 1 8.53406 18.1 9.53807 -3.54
1393 1 8.53406 0 22.5902 -3.54
1394 1 8.53406 3.62 22.5902 -3.54
1395 1 8.53406 7.24 22.5902 -3.54
1396 1 8.53406 10.86 22.5902 -3.54
1397 1 8.53406 14.48 22.5902 -3.54
1398 1 8.53406 18.1 22.5902 -3.54
1441 1 12.0481 1.81 11.5461 -3.54
1442 1 12.0481 5.43 11.5461 -3.54
1443 1 12.0481 9.05 11.5461 -3.54
1444 1 12.0481 12.67 11.5461 -3.54
1445 1 12.0481 16.29 11.5461 -3.54
1446 1 12.0481 19.91 11.5461 -3.54
1489 1 12.0481 1.81 24.5982 -3.54
1490 1 12.0481 5.43 24.5982 -3.54
1491 1 12.0481 9.05 24.5982 -3.54
1492 1 12.0481 12.67 24.5982 -3.54
1493 1 12.0481 16.29 24.5982 -3.54
1494 1 12.0481 19.91 24.5982 -3.54
1537 1 11.0441 0 10.0401 -3.54
1538 1 11.0441 3.62 10.0401 -3.54
1539 1 11.0441 7.24 10.0401 -3.54
1540 1 11.0441 10.86 10.0401 -3.54
1541 1 11.0441 14.48 10.0401 -3.54
1542 1 11.0441 18.1 10.0401 -3.54
1585 1 11.0441 0 23.0922 -3.54
1586 1 11.0441 3.62 23.0922 -3.54
1587 1 11.0441 7.24 23.0922 -3.54
1588 1 11.0441 10.86 23.0922 -3.54
1589 1 11.0441 14.48 23.0922 -3.54
1590 1 11.0441 18.1 23.0922 -3.54
1633 1 1.04083e-17 1.81 6.52605 -2.66905
1634 1 1.04083e-17 5.43 6.52605 -2.66905
1635 1 1.04083e-17 9.05 6.52605 -2.66905
1636 1 1.04083e-17 12.67 6.52605 -2.66905
1637 1 1.04083e-17 16.29 6.52605 -2.66905
1638 1 1.04083e-17 19.91 6.52605 -2.66905
1639 1 13.0521 1.81 6.52605 -3.54
1640 1 13.0521 5.43 6.52605 -3.54
1641 1 13.0521 9.05 6.52605 -3.54
1642 1 13.0521 12.67 6.52605 -3.54
1643 1 13.0521 16.29 6.52605 -3.54
1644 1 13.0521 19.91 6.52605 -3.54
1681 1 1.04083e-17 1.81 19.5781 -2.66905
1682 1 1.04083e-17 5.43 19.5781 -2.66905
1683 1 1.04083e-17 9.05 19.5781 -2.66905
1684 1 1.04083e-17 12.67 19.5781 -2.66905
1685 1 1.04083e-17 16.29 19.5781 -2.66905
1686 1 1.04083e-17 19.91 19.5781 -2.66905
1687 1 13.0521 1.81 19.5781 -3.54
1688 1 13.0521 5.43 19.5781 -3.54
1689 1 13.0521 9.05 19.5781 -3.54
1690 1 13.0521 12.67 19.5781 -3.54
1691 1 13.0521 16.29 19.5781 -3.54
1692 1 13.0521 19.91 19.5781 -3.54
1729 1 2.51002 1.81 7.02805 -3.54051
1730 1 2.51002 5.43 7.02805 -3.54051
1731 1 2.51002 9.05 7.02805 -3.54051
1732 1 2.51002 12.67 7.02805 -3.54051
1733 1 2.51002 16.29 7.02805 -3.54051
1734 1 2.51002 19.91 7.02805 -3.54051
1735 1 15.5621 1.81 7.02805 -3.54
1736 1 15.5621 5.43 7.02805 -3.54
1737 1 15.5621 9.05 7.02805 -3.54
1738 1 15.5621 12.67 7.02805 -3.54
1739 1 15.5621 16.29 7.02805 -3.54
1740 1 15.5621 19.91 7.02805 -3.54
1777 1 2.51002 1.81 20.0801 -3.54051
1778 1 2.51002 5.43 20.0801 -3.54051
1779 1 2.51002 9.05 20.0801 -3.54051
1780 1 2.51002 12.67 20.0801 -3.54051
1781 1 2.51002 16.29 20.0801 -3.54051
1782 1 2.51002 19.91 20.0801 -3.54051
1783 1 15.5621 1.81 20.0801 -3.54
1784 1 15.5621 5.43 20.0801 -3.54
1785 1 15.5621 9.05 20.0801 -3.54
1786 1 15.5621 12.67 20.0801 -3.54
1787 1 15.5621 16.29 20.0801 -3.54
1788 1 15.5621 19.91 20.0801 -3.54
1825 1 1.50601 0 5.52204 -3.43919
1826 1 1.50601 3.62 5.52204 -3.43919
1827 1 1.50601 7.24 5.52204 -3.43919
1828 1 1.50601 10.86 5.52204 -3.43919
1829 1 1.50601 14.48 5.52204 -3.43919
1830 1 1.50601 18.1 5.52204 -3.43919
1831 1 14.5581 0 5.52204 -3.54
1832 1 14.5581 3.62 5.52204 -3.54
1833 1 14.5581 7.24 5.52204 -3.54
1834 1 14.5581 10.86 5.52204 -3.54
1835 1 14.5581 14.48 5.52204 -3.54
1836 1 14.5581 18.1 5.52204 -3.54
1873 1 1.50601 0 18.5741 -3.43919
1874 1 1.50601 3.62 18.5741 -3.43919
1875 1 1.50601 7.24 18.5741 -3.43919
1876 1 1.50601 10.86 18.5741 -3.43919
1877 1 1.50601 14.48 18.5741 -3.43919
1878 1 1.50601 18.1 18.5741 -3.43919
1879 1 14.5581 0 18.5741 -3.54
1880 1 14.5581 3.62 18.5741 -3.54
1881 1 14.5581 7.24 18.5741 -3.54
1882 1 14.5581 10.86 18.5741 -3.54
1883 1 14.5581 14.48 18.5741 -3.54
1884 1 14.5581 18.1 18.5741 -3.54
1921 1 5.02004 1.81 7.53006 -3.54
1922 1 5.02004 5.43 7.53006 -3.54
1923 1 5.02004 9.05 7.53006 -3.54
1924 1 5.02004 12.67 7.53006 -3.54
1925 1 5.02004 16.29 7.53006 -3.54
1926 1 5.02004 19.91 7.53006 -3.54
1969 1 5.02004 1.81 20.5821 -3.54
1970 1 5.02004 5.43 20.5821 -3.54
1971 1 5.02004 9.05 20.5821 -3.54
1972 1 5.02004 12.67 20.5821 -3.54
1973 1 5.02004 16.29 20.5821 -3.54
1974 1 5.02004 19.91 20.5821 -3.54
2017 1 4.01603 0 6.02404 -3.54
2018 1 4.01603 3.62 6.02404 -3.54
2019 1 4.01603 7.24 6.02404 -3.54
2020 1 4.01603 10.86 6.02404 -3.54
2021 1 4.01603 14.48 6.02404 -3.54
2022 1 4.01603 18.1 6.02404 -3.54
2023 1 17.0681 0 6.02404 -3.54
2024 1 17.0681 3.62 6.02404 -3.54
2025 1 17.0681 7.24 6.02404 -3.54
2026 1 17.0681 10.86 6.02404 -3.54
2027 1 17.0681 14.48 6.02404 -3.54
2028 1 17.0681 18.1 6.02404 -3.54
2065 1 4.01603 0 19.0761 -3.54
2066 1 4.01603 3.62 19.0761 -3.54
2067 1 4.01603 7.24 19.0761 -3.54
2068 1 4.01603 10.86 19.0761 -3.54
2069 1 4.01603 14.48 19.0761 -3.54
2070 1 4.01603 18.1 19.0761 -3.54
2071 1 17.0681 0 19.0761 -3.54
2072 1 17.0681 3.62 19.0761 -3.54
2073 1 17.0681 7.24 19.0761 -3.54
2074 1 17.0681 10.86 19.0761 -3.54
2075 1 17.0681 14.48 19.0761 -3.54
2076 1 17.0681 18.1 19.0761 -3.54
2113 1 7.53006 1.81 8.03206 -3.54
2114 1 7.53006 5.43 8.03206 -3.54
2115 1 7.53006 9.05 8.03206 -3.54
2116 1 7.53006 12.67 8.03206 -3.54
2117 1 7.53006 16.29 8.03206 -3.54
2118 1 7.53006 19.91 8.03206 -3.54
2161 1 7.53006 1.81 21.0842 -3.54
2162 1 7.53006 5.43 21.0842 -3.54
2163 1 7.53006 9.05 21.0842 -3.54
2164 1 7.53006 12.67 21.0842 -3.54
2165 1 7.53006 16.29 21.0842 -3.54
2166 1 7.53006 19.91 21.0842 -3.54
2209 1 6.52605 0 6.52605 -3.54
2210 1 6.52605 3.62 6.52605 -3.54
2211 1 6.52605 7.24 6.52605 -3.54
2212 1 6.52605 10.86 6.52605 -3.54
2213 1 6.52605 14.48 6.52605 -3.54
2214 1 6.52605 18.1 6.52605 -3.54
2257 1 6.52605 0 19.5781 -3.54
2258 1 6.52605 3.62 19.5781 -3.54
2259 1 6.52605 7.24 19.5781 -3.54
2260 1 6.52605 10.86 19.5781 -3.54
2261 1 6.52605 14.48 19.5781 -3.54
2262 1 6.52605 18.1 19.5781 -3.54
2305 1 10.0401 1.81 8.53406 -3.54
2306 1 10.0401 5.43 8.53406 -3.54
2307 1 10.0401 9.05 8.53406 -3.54
2308 1 10.0401 12.67 8.53406 -3.54
2309 1 10.0401 16.29 8.53406 -3.54
2310 1 10.0401 19.91 8.53406 -3.54
2353 1 10.0401 1.81 21.5862 -3.54
2354 1 10.0401 5.43 21.5862 -3.54
2355 1 10.0401 9.05 21.5862 -3.54
2356 1 10.0401 12.67 21.5862 -3.54
2357 1 10.0401 16.29 21.5862 -3.54
2358 1 10.0401 19.91 21.5862 -3.54
2401 1 9.03607 0 7.02805 -3.54
2402 1 9.03607 3.62 7.02805 -3.54
2403 1 9.03607 7.24 7.02805 -3.54
2404 1 9.03607 10.86 7.02805 -3.54
2405 1 9.03607 14.48 7.02805 -3.54
2406 1 9.03607 18.1 7.02805 -3.54
2449 1 9.03607 0 20.0801 -3.54
2450 1 9.03607 3.62 20.0801 -3.54
2451 1 9.03607 7.24 20.0801 -3.54
2452 1 9.03607 10.86 20.0801 -3.54
2453 1 9.03607 14.48 20.0801 -3.54
2454 1 9.03607 18.1 20.0801 -3.54
2497 1 12.5501 1.81 9.03607 -3.54
2498 1 12.5501 5.43 9.03607 -3.54
2499 1 12.5501 9.05 9.03607 -3.54
2500 1 12.5501 12.67 9.03607 -3.54
2501 1 12.5501 16.29 9.03607 -3.54
2502 1 12.5501 19.91 9.03607 -3.54
2545 1 12.5501 1.81 22.0882 -3.54
2546 1 12.5501 5.43 22.0882 -3.54
2547 1 12.5501 9.05 22.0882 -3.54
2548 1 12.5501 12.67 22.0882 -3.54
2549 1 12.5501 16.29 22.0882 -3.54
2550 1 12.5501 19.91 22.0882 -3.54
2593 1 11.5461 0 7.53006 -3.54
2594 1 11.5461 3.62 7.53006 -3.54
2595 1 11.5461 7.24 7.53006 -3.54
2596 1 11.5461 10.86 7.53006 -3.54
2597 1 11.5461 14.48 7.53006 -3.54
2598 1 11.5461 18.1 7.53006 -3.54
2641 1 11.5461 0 20.5821 -3.54
2642 1 11.5461 3.62 20.5821 -3.54
2643 1 11.5461 7.24 20.5821 -3.54
2644 1 11.5461 10.86 20.5821 -3.54
2645 1 11.5461 14.48 20.5821 -3.54
2646 1 11.5461 18.1 20.5821 -3.54
2689 1 0.502004 1.81 4.01603 -2.83262
2690 1 0.502004 5.43 4.01603 -2.83262
2691 1 0.502004 9.05 4.01603 -2.83262
2692 1 0.502004 12.67 4.01603 -2.83262
2693 1 0.502004 16.29 4.01603 -2.83262
2694 1 0.502004 19.91 4.01603 -2.83262
2695 1 13.5541 1.81 4.01603 -3.54
2696 1 13.5541 5.43 4.01603 -3.54
2697 1 13.5541 9.05 4.01603 -3.54
2698 1 13.5541 12.67 4.01603 -3.54
2699 1 13.5541 16.29 4.01603 -3.54
2700 1 13.5541 19.91 4.01603 -3.54
2737 1 0.502004 1.81 17.0681 -2.83262
2738 1 0.502004 5.43 17.0681 -2.83262
2739 1 0.502004 9.05 17.0681 -2.83262
2740 1 0.502004 12.67 17.0681 -2.83262
2741 1 0.502004 16.29 17.0681 -2.83262
2742 1 0.502004 19.91 17.0681 -2.83262
2743 1 13.5541 1.81 17.0681 -3.54
2744 1 13.5541 5.43 17.0681 -3.54
2745 1 13.5541 9.05 17.0681 -3.54
2746 1 13.5541 12.67 17.0681 -3.54
2747 1 13.5541 16.29 17.0681 -3.54
2748 1 13.5541 19.91 17.0681 -3.54
2785 1 3.01202 1.81 4.51803 -3.54
2786 1 3.01202 5.43 4.51803 -3.54
2787 1 3.01202 9.05 4.51803 -3.54
2788 1 3.01202 12.67 4.51803 -3.54
2789 1 3.01202 16.29 4.51803 -3.54
2790 1 3.01202 19.91 4.51803 -3.54
2791 1 16.0641 1.81 4.51803 -3.54
2792 1 16.0641 5.43 4.51803 -3.54
2793 1 16.0641 9.05 4.51803 -3.54
2794 1 16.0641 12.67 4.51803 -3.54
2795 1 16.0641 16.29 4.51803 -3.54
2796 1 16.0641 19.91 4.51803 -3.54
2833 1 3.01202 1.81 17.5701 -3.54
2834 1 3.01202 5.43 17.5701 -3.54
2835 1 3.01202 9.05 17.5701 -3.54
2836 1 3.01202 12.67 17.5701 -3.54
2837 1 3.01202 16.29 17.5701 -3.54
2838 1 3.01202 19.91 17.5701 -3.54
2839 1 16.0641 1.81 17.5701 -3.54
2840 1 16.0641 5.43 17.5701 -3.54
2841 1 16.0641 9.05 17.5701 -3.54
2842 1 16.0641 12.67 17.5701 -3.54
2843 1 16.0641 16.29 17.5701 -3.54
2844 1 16.0641 19.91 17.5701 -3.54
2881 1 2.00801 0 3.01202 -3.43896
2882 1 2.00801 3.62 3.01202 -3.43896
2883 1 2.00801 7.24 3.01202 -3.43896
2884 1 2.00801 10.86 3.01202 -3.43896
2885 1 2.00801 14.48 3.01202 -3.43896
2886 1 2.00801 18.1 3.01202 -3.43896
2887 1 15.0601 0 3.01202 -3.54
2888 1 15.0601 3.62 3.01202 -3.54
2889 1 15.0601 7.24 3.01202 -3.54
2890 1 15.0601 10.86 3.01202 -3.54
2891 1 15.0601 14.48 3.01202 -3.54
2892 1 15.0601 18.1 3.01202 -3.54
2929 1 2.00801 0 16.0641 -3.43896
2930 1 2.00801 3.62 16.0641 -3.43896
2931 1 2.00801 7.24 16.0641 -3.43896
2932 1 2.00801 10.86 16.0641 -3.43896
2933 1 2.00801 14.48 16.0641 -3.43896
2934 1 2.00801 18.1 16.0641 -3.43896
2935 1 15.0601 0 16.0641 -3.54
2936 1 15.0601 3.62 16.0641 -3.54
2937 1 15.0601 7.24 16.0641 -3.54
2938 1 15.0601 10.86 16.0641 -3.54
2939 1 15.0601 14.48 16.0641 -3.54
2940 1 15.0601 18.1 16.0641 -3.54
2977 1 5.52204 1.81 5.02004 -3.54
2978 1 5.52204 5.43 5.02004 -3.54
2979 1 5.52204 9.05 5.02004 -3.54
2980 1 5.52204 12.67 5.02004 -3.54
2981 1 5.52204 16.29 5.02004 -3.54
2982 1 5.52204 19.91 5.02004 -3.54
3025 1 5.52204 1.81 18.0721 -3.54
3026 1 5.52204 5.43 18.0721 -3.54
3027 1 5.52204 9.05 18.0721 -3.54
3028 1 5.52204 12.67 18.0721 -3.54
3029 1 5.52204 16.29 18.0721 -3.54
3030 1 5.52204 19.91 18.0721 -3.54
3073 1 4.51803 0 3.51403 -3.54
3074 1 4.51803 3.62 3.51403 -3.54
3075 1 4.51803 7.24 3.51403 -3.54
3076 1 4.51803 10.86 3.51403 -3.54
3077 1 4.51803 14.48 3.51403 -3.54
3078 1 4.51803 18.1 3.51403 -3.54
3121 1 4.51803 0 16.5661 -3.54
3122 1 4.51803 3.62 16.5661 -3.54
3123 1 4.51803 7.24 16.5661 -3.54
3124 1 4.51803 10.86 16.5661 -3.54
3125 1 4.51803 14.48 16.5661 -3.54
3126 1 4.51803 18.1 16.5661 -3.54
3169 1 8.03206 1.81 5.52204 -3.54
3170 1 8.03206 5.43 5.52204 -3.54
3171 1 8.03206 9.05 5.52204 -3.54
3172 1 8.03206 12.67 5.52204 -3.54
3173 1 8.03206 16.29 5.52204 -3.54
3174 1 8.03206 19.91 5.52204 -3.54
3217 1 8.03206 1.81 18.5741 -3.54
3218 1 8.03206 5.43 18.5741 -3.54
3219 1 8.03206 9.05 18.5741 -3.54
3220 1 8.03206 12.67 18.5741 -3.54
3221 1 8.03206 16.29 18.5741 -3.54
3222 1 8.03206 19.91 18.5741 -3.54
3265 1 7.02805 0 4.01603 -3.54
3266 1 7.02805 3.62 4.01603 -3.54
3267 1 7.02805 7.24 4.01603 -3.54
3268 1 7.02805 10.86 4.01603 -3.54
3269 1 7.02805 14.48 4.01603 -3.54
3270 1 7.02805 18.1 4.01603 -3.54
3313 1 7.02805 0 17.0681 -3.54
3314 1 7.02805 3.62 17.0681 -3.54
3315 1 7.02805 7.24 17.0681 -3.54
3316 1 7.02805 10.86 17.0681 -3.54
3317 1 7.02805 14.48 17.0681 -3.54
3318 1 7.02805 18.1 17.0681 -3.54
3361 1 10.5421 1.81 6.02404 -3.54
3362 1 10.5421 5.43 6.02404 -3.54
3363 1 10.5421 9.05 6.02404 -3.54
3364 1 10.5421 12.67 6.02404 -3.54
3365 1 10.5421 16.29 6.02404 -3.54
3366 1 10.5421 19.91 6.02404 -3.54
3409 1 10.5421 1.81 19.0761 -3.54
3410 1 10.5421 5.43 19.0761 -3.54
3411 1 10.5421 9.05 19.0761 -3.54
3412 1 10.5421 12.67 19.0761 -3.54
3413 1 10.5421 16.29 19.0761 -3.54
3414 1 10.5421 19.91 19.0761 -3.54
3457 1 9.53807 0 4.51803 -3.54
3458 1 9.53807 3.62 4.51803 -3.54
3459 1 9.53807 7.24 4.51803 -3.54
3460 1 9.53807 10.86 4.51803 -3.54
3461 1 9.53807 14.48 4.51803 -3.54
3462 1 9.53807 18.1 4.51803 -3.54
3505 1 9.53807 0 17.5701 -3.54
3506 1 9.53807 3.62 17.5701 -3.54
3507 1 9.53807 7.24 17.5701 -3.54
3508 1 9.53807 10.86 17.5701 -3.54
3509 1 9.53807 14.48 17.5701 -3.54
3510 1 9.53807 18.1 17.5701 -3.54
3553 1 12.0481 0 5.02004 -3.54
3554 1 12.0481 3.62 5.02004 -3.54
3555 1 12.0481 7.24 5.02004 -3.54
3556 1 12.0481 10.86 5.02004 -3.54
3557 1 12.0481 14.48 5.02004 -3.54
3558 1 12.0481 18.1 5.02004 -3.54
3601 1 12.0481 0 18.0721 -3.54
3602 1 12.0481 3.62 18.0721 -3.54
3603 1 12.0481 7.24 18.0721 -3.54
3604 1 12.0481 10.86 18.0721 -3.54
3605 1 12.0481 14.48 18.0721 -3.54
3606 1 12.0481 18.1 18.0721 -3.54
3649 1 1.00401 1.81 1.50601 -3.16894
3650 1 1.00401 5.43 1.50601 -3.16894
3651 1 1.00401 9.05 1.50601 -3.16894
3652 1 1.00401 12.67 1.50601 -3.16894
3653 1 1.00401 16.29 1.50601 -3.16894
3654 1 1.00401 19.91 1.50601 -3.16894
3655 1 14.0561 1.81 1.50601 -3.54
3656 1 14.0561 5.43 1.50601 -3.54
3657 1 14.0561 9.05 1.50601 -3.54
3658 1 14.0561 12.67 1.50601 -3.54
3659 1 14.0561 16.29 1.50601 -3.54
3660 1 14.0561 19.91 1.50601 -3.54
3697 1 1.00401 1.81 14.5581 -3.16894
3698 1 1.00401 5.43 14.5581 -3.16894
3699 1 1.00401 9.05 14.5581 -3.16894
3700 1 1.00401 12.67 14.5581 -3.16894
3701 1 1.00401 16.29 14.5581 -3.16894
3702 1 1.00401 19.91 14.5581 -3.16894
3703 1 14.0561 1.81 14.5581 -3.54
3704 1 14.0561 5.43 14.5581 -3.54
3705 1 14.0561 9.05 14.5581 -3.54
3706 1 14.0561 12.67 14.5581 -3.54
3707 1 14.0561 16.29 14.5581 -3.54
3708 1 14.0561 19.91 14.5581 -3.54
3745 1 1.04083e-17 0 0 -2.66905
3746 1 1.04083e-17 3.62 0 -2.66905
3747 1 1.04083e-17 7.24 0 -2.66905
3748 1 1.04083e-17 10.86 0 -2.66905
3749 1 1.04083e-17 14.48 0 -2.66905
3750 1 1.04083e-17 18.1 0 -2.66905
3751 1 13.0521 0 0 -3.54
3752 1 13.0521 3.62 0 -3.54
3753 1 13.0521 7.24 0 -3.54
3754 1 13.0521 10.86 0 -3.54
3755 1 13.0521 14.48 0 -3.54
3756 1 13.0521 18.1 0 -3.54
3793 1 1.04083e-17 0 13.0521 -2.66905
3794 1 1.04083e-17 3.62 13.0521 -2.66905
3795 1 1.04083e-17 7.24 13.0521 -2.66905
3796 1 1.04083e-17 10.86 13.0521 -2.66905
3797 1 1.04083e-17 14.48 13.0521 -2.66905
3798 1 1.04083e-17 18.1 13.0521 -2.66905
3799 1 13.0521 0 13.0521 -3.54
3800 1 13.0521 3.62 13.0521 -3.54
3801 1 13.0521 7.24 13.0521 -3.54
3802 1 13.0521 10.86 13.0521 -3.54
3803 1 13.0521 14.48 13.0521 -3.54
3804 1 13.0521 18.1 13.0521 -3.54
3841 1 3.51403 1.81 2.00801 -3.54
3842 1 3.51403 5.43 2.00801 -3.54
3843 1 3.51403 9.05 2.00801 -3.54
3844 1 3.51403 12.67 2.00801 -3.54
3845 1 3.51403 16.29 2.00801 -3.54
3846 1 3.51403 19.91 2.00801 -3.54
3847 1 16.5661 1.81 2.00801 -3.54
3848 1 16.5661 5.43 2.00801 -3.54
3849 1 16.5661 9.05 2.00801 -3.54
3850 1 16.5661 12.67 2.00801 -3.54
3851 1 16.5661 16.29 2.00801 -3.54
3852 1 16.5661 19.91 2.00801 -3.54
3889 1 3.51403 1.81 15.0601 -3.54
3890 1 3.51403 5.43 15.0601 -3.54
3891 1 3.51403 9.05 15.0601 -3.54
3892 1 3.51403 12.67 15.0601 -3.54
3893 1 3.51403 16.29 15.0601 -3.54
3894 1 3.51403 19.91 15.0601 -3.54
3895 1 16.5661 1.81 15.0601 -3.54
3896 1 16.5661 5.43 15.0601 -3.54
3897 1 16.5661 9.05 15.0601 -3.54
3898 1 16.5661 12.67 15.0601 -3.54
3899 1 16.5661 16.29 15.0601 -3.54
3900 1 16.5661 19.91 15.0601 -3.54
3937 1 2.51002 0 0.502 -3.54051
3938 1 2.51002 3.62 0.502 -3.54051
3939 1 2.51002 7.24 0.502 -3.54051
3940 1 2.51002 10.86 0.502 -3.54051
3941 1 2.51002 14.48 0.502 -3.54051
3942 1 2.51002 18.1 0.502 -3.54051
3943 1 15.5621 0 0.502 -3.54
3944 1 15.5621 3.62 0.502 -3.54
3945 1 15.5621 7.24 0.502 -3.54
3946 1 15.5621 10.86 0.502 -3.54
3947 1 15.5621 14.48 0.502 -3.54
3948 1 15.5621 18.1 0.502 -3.54
3985 1 2.51002 0 13.5541 -3.54051
3986 1 2.51002 3.62 13.5541 -3.54051
3987 1 2.51002 7.24 13.5541 -3.54051
3988 1 2.51002 10.86 13.5541 -3.54051
3989 1 2.51002 14.48 13.5541 -3.54051
3990 1 2.51002 18.1 13.5541 -3.54051
3991 1 15.5621 0 13.5541 -3.54
3992 1 15.5621 3.62 13.5541 -3.54
3993 1 15.5621 7.24 13.5541 -3.54
3994 1 15.5621 10.86 13.5541 -3.54
3995 1 15.5621 14.48 13.5541 -3.54
3996 1 15.5621 18.1 13.5541 -3.54
4033 1 6.02404 1.81 2.51002 -3.54
4034 1 6.02404 5.43 2.51002 -3.54
4035 1 6.02404 9.05 2.51002 -3.54
4036 1 6.02404 12.67 2.51002 -3.54
4037 1 6.02404 16.29 2.51002 -3.54
4038 1 6.02404 19.91 2.51002 -3.54
4081 1 6.02404 1.81 15.5621 -3.54
4082 1 6.02404 5.43 15.5621 -3.54
4083 1 6.02404 9.05 15.5621 -3.54
4084 1 6.02404 12.67 15.5621 -3.54
4085 1 6.02404 16.29 15.5621 -3.54
4086 1 6.02404 19.91 15.5621 -3.54
4129 1 5.02004 0 1.00401 -3.54
4130 1 5.02004 3.62 1.00401 -3.54
4131 1 5.02004 7.24 1.00401 -3.54
4132 1 5.02004 10.86 1.00401 -3.54
4133 1 5.02004 14.48 1.00401 -3.54
4134 1 5.02004 18.1 1.00401 -3.54
4177 1 5.02004 0 14.0561 -3.54
4178 1 5.02004 3.62 14.0561 -3.54
4179 1 5.02004 7.24 14.0561 -3.54
4180 1 5.02004 10.86 14.0561 -3.54
4181 1 5.02004 14.48 14.0561 -3.54
4182 1 5.02004 18.1 14.0561 -3.54
4225 1 8.53406 1.81 3.01202 -3.54
4226 1 8.53406 5.43 3.01202 -3.54
4227 1 8.53406 9.05 3.01202 -3.54
4228 1 8.53406 12.67 3.01202 -3.54
4229 1 8.53406 16.29 3.01202 -3.54
4230 1 8.53406 19.91 3.01202 -3.54
4273 1 8.53406 1.81 16.0641 -3.54
4274 1 8.53406 5.43 16.0641 -3.54
4275 1 8.53406 9.05 16.0641 -3.54
4276 1 8.53406 12.67 16.0641 -3.54
4277 1 8.53406 16.29 16.0641 -3.54
4278 1 8.53406 19.91 16.0641 -3.54
4321 1 7.53006 0 1.50601 -3.54
4322 1 7.53006 3.62 1.50601 -3.54
4323 1 7.53006 7.24 1.50601 -3.54
4324 1 7.53006 10.86 1.50601 -3.54
4325 1 7.53006 14.48 1.50601 -3.54
4326 1 7.53006 18.1 1.50601 -3.54
4369 1 7.53006 0 14.5581 -3.54
4370 1 7.53006 3.62 14.5581 -3.54
4371 1 7.53006 7.24 14.5581 -3.54
4372 1 7.53006 10.86 14.5581 -3.54
4373 1 7.53006 14.48 14.5581 -3.54
4374 1 7.53006 18.1 14.5581 -3.54
4417 1 11.0441 1.81 3.51403 -3.54
4418 1 11.0441 5.43 3.51403 -3.54
4419 1 11.0441 9.05 3.51403 -3.54
4420 1 11.0441 12.67 3.51403 -3.54
4421 1 11.0441 16.29 3.51403 -3.54
4422 1 11.0441 19.91 3.51403 -3.54
4465 1 11.0441 1.81 16.5661 -3.54
4466 1 11.0441 5.43 16.5661 -3.54
4467 1 11.0441 9.05 16.5661 -3.54
4468 1 11.0441 12.67 16.5661 -3.54
4469 1 11.0441 16.29 16.5661 -3.54
4470 1 11.0441 19.91 16.5661 -3.54
4513 1 10.0401 0 2.00801 -3.54
4514 1 10.0401 3.62 2.00801 -3.54
4515 1 10.0401 7.24 2.00801 -3.54
4516 1 10.0401 10.86 2.00801 -3.54
4517 1 10.0401 14.48 2.00801 -3.54
4518 1 10.0401 18.1 2.00801 -3.54
4561 1 10.0401 0 15.0601 -3.54
4562 1 10.0401 3.62 15.0601 -3.54
4563 1 10.0401 7.24 15.0601 -3.54
4564 1 10.0401 10.86 15.0601 -3.54
4565 1 10.0401 14.48 15.0601 -3.54
4566 1 10.0401 18.1 15.0601 -3.54
4609 1 12.5501 0 2.51002 -3.54
4610 1 12.5501 3.62 2.51002 -3.54
4611 1 12.5501 7.24 2.51002 -3.54
4612 1 12.5501 10.86 2.51002 -3.54
4613 1 12.5501 14.48 2.51002 -3.54
4614 1 12.5501 18.1 2.51002 -3.54
4657 1 12.5501 0 15.5621 -3.54
4658 1 12.5501 3.62 15.5621 -3.54
4659 1 12.5501 7.24 15.5621 -3.54
4660 1 12.5501 10.86 15.5621 -3.54
4661 1 12.5501 14.48 15.5621 -3.54
4662 1 12.5501 18.1 15.5621 -3.54
4705 1 6.52605 1.81 0 -3.54
4706 1 6.52605 5.43 0 -3.54
4707 1 6.52605 9.05 0 -3.54
4708 1 6.52605 12.67 0 -3.54
4709 1 6.52605 16.29 0 -3.54
4710 1 6.52605 19.91 0 -3.54
4753 1 6.52605 1.81 13.0521 -3.54
4754 1 6.52605 5.43 13.0521 -3.54
4755 1 6.52605 9.05 13.0521 -3.54
4756 1 6.52605 12.67 13.0521 -3.54
4757 1 6.52605 16.29 13.0521 -3.54
4758 1 6.52605 19.91 13.0521 -3.54
4801 1 9.03607 1.81 0.502 -3.54
4802 1 9.03607 5.43 0.502 -3.54
4803 1 9.03607 9.05 0.502 -3.54
4804 1 9.03607 12.67 0.502 -3.54
4805 1 9.03607 16.29 0.502 -3.54
4806 1 9.03607 19.91 0.502 -3.54
4849 1 9.03607 1.81 13.5541 -3.54
4850 1 9.03607 5.43 13.5541 -3.54
4851 1 9.03607 9.05 13.5541 -3.54
4852 1 9.03607 12.67 13.5541 -3.54
4853 1 9.03607 16.29 13.5541 -3.54
4854 1 9.03607 19.91 13.5541 -3.54
4897 1 11.5461 1.81 1.00401 -3.54
4898 1 11.5461 5.43 1.00401 -3.54
4899 1 11.5461 9.05 1.00401 -3.54
4900 1 11.5461 12.67 1.00401 -3.54
4901 1 11.5461 16.29 1.00401 -3.54
4902 1 11.5461 19.91 1.00401 -3.54
4945 1 11.5461 1.81 14.0561 -3.54
4946 1 11.5461 5.43 14.0561 -3.54
4947 1 11.5461 9.05 14.0561 -3.54
4948 1 11.5461 12.67 14.0561 -3.54
4949 1 11.5461 16.29 14.0561 -3.54
4950 1 11.5461 19.91 14.0561 -3.54
13 1 27.6102 1.81 12.0481 -3.54
14 1 27.6102 5.43 12.0481 -3.54
15 1 27.6102 9.05 12.0481 -3.54
16 1 27.6102 12.67 12.0481 -3.54
17 1 27.6102 16.29 12.0481 -3.54
18 1 27.6102 19.91 12.0481 -3.54
61 1 27.6102 1.81 25.1002 -3.54
62 1 27.6102 5.43 25.1002 -3.54
63 1 27.6102 9.05 25.1002 -3.54
64 1 27.6102 12.67 25.1002 -3.54
65 1 27.6102 16.29 25.1002 -3.54
66 1 27.6102 19.91 25.1002 -3.54
109 1 26.6062 0 10.5421 -3.54
110 1 26.6062 3.62 10.5421 -3.54
111 1 26.6062 7.24 10.5421 -3.54
112 1 26.6062 10.86 10.5421 -3.54
113 1 26.6062 14.48 10.5421 -3.54
114 1 26.6062 18.1 10.5421 -3.54
157 1 26.6062 0 23.5942 -3.54
158 1 26.6062 3.62 23.5942 -3.54
159 1 26.6062 7.24 23.5942 -3.54
160 1 26.6062 10.86 23.5942 -3.54
161 1 26.6062 14.48 23.5942 -3.54
162 1 26.6062 18.1 23.5942 -3.54